LAMMPS (2 Aug 2023 - Update 2)
OMP_NUM_THREADS environment is not set. Defaulting to 1 thread. (src/comm.cpp:98)
  using 1 OpenMP thread(s) per MPI task
Reading data file ...
  orthogonal box = (0 0 0) to (60 60 60)
  1 by 1 by 2 MPI processor grid
  reading atoms ...
  3600 atoms
  scanning bonds ...
  4 = max bonds/atom
  scanning angles ...
  6 = max angles/atom
  scanning dihedrals ...
  10 = max dihedrals/atom
  scanning impropers ...
  1 = max impropers/atom
  reading bonds ...
  3700 bonds
  reading angles ...
  5700 angles
  reading dihedrals ...
  8500 dihedrals
  reading impropers ...
  300 impropers
Finding 1-2 1-3 1-4 neighbors ...
  special bond factors lj:    0        0        0.5     
  special bond factors coul:  0        0        0.8333333333333334
     4 = max # of 1-2 neighbors
     6 = max # of 1-3 neighbors
    14 = max # of 1-4 neighbors
    16 = max # of special neighbors
  special bonds CPU = 0.001 seconds
  read_data CPU = 0.045 seconds
ERROR on proc 0: Cannot open molecule file post_0_mol.data: No such file or directory (src/molecule.cpp:142)
Last command: molecule        post post_0_mol.data max_special 1000
