LAMMPS Description
3600 atoms
3700 bonds
5700 angles
8500 dihedrals
300 impropers
11 atom types
11 bond types
16 angle types
12 dihedral types
2 improper types
0.0 60 xlo xhi
0.0 60 ylo yhi
0.0 60 zlo zhi

Masses

1 12.01  # c
2 12.01  # c2
3 12.01  # c3
4 1.008  # h1
5 1.008  # hc
6 1.008  # hn
7 1.008  # hx
8 35.45  # cl
9 14.01  # n
10 14.01  # n3
11 16.00  # o

Pair Coeffs

1 0.0988 3.3152123099438304
2 0.0988 3.3152123099438304
3 0.1078 3.397709531243626
4 0.0208 2.4219972551363265
5 0.0208 2.600176998764394
6 0.0100 1.1064962079303013
7 0.0208 1.8874580242521226
8 0.2638 3.465952373053176
9 0.1636 3.1808647832482673
10 0.0858 3.36510263815969
11 0.1463 3.048120874245357

Bond Coeffs

1 481.8 1.3340
2 393.9 1.0870
3 232.5 1.5380
4 375.9 1.0970
5 263.8 1.4620
6 261.2 1.4650
7 368.2 1.4060
8 156.2 1.8030
9 356.2 1.3790
10 652.6 1.2180
11 511.3 1.0190

Angle Coeffs

1 71.5 121.81
2 50.5 119.70
3 69.9 120.70
4 46.9 109.56
5 83.3 111.04
6 83.2 111.61
7 38.8 108.46
8 61.2 109.88
9 61.5 108.88
10 91.2 119.12
11 89.0 120.69
12 113.8 123.05
13 65.7 112.35
14 47.8 109.29
15 64.9 115.64
16 65.3 120.69

Dihedral Coeffs

1 1 2.175 2 180.0
2 1 2.5 2 180.0
3 1 6.65 2 180.0
4 1 0.15555555555555556 3 0.0
5 1 0.0 2 0.0
6 1 0.3 3 0.0
7 2 2.175 2 180.0 0.3 3 0.0
8 3 0.65 4 180.0 0.03 3 180.0 2.26 1 0.0
9 1 0.225 3 0.0
10 1 0.0 2 180.0
11 1 0.217 3 0.0
12 2 0.58 3 0.0 0.28 2 180.0

Improper Coeffs

1 10.5 -1 2
2 1.1 -1 2

Atoms

1 1 3 0.00771179 48.418 45.063 15.127
2 1 3 0.00771179 47.740 46.030 16.004
3 1 10 -0.314215 46.932 45.545 17.038
4 1 3 0.00771179 46.384 44.251 16.837
5 1 3 0.00771179 47.532 43.317 16.453
6 1 10 -0.314215 47.896 43.739 15.107
7 1 4 0.0441223 48.435 45.425 14.057
8 1 4 0.0441223 49.509 44.983 15.407
9 1 4 0.0441223 47.121 46.718 15.356
10 1 4 0.0441223 48.517 46.720 16.446
11 1 6 0.122302 47.213 45.768 18.011
12 1 4 0.0441223 45.716 44.305 15.931
13 1 4 0.0441223 45.795 43.885 17.666
14 1 4 0.0441223 47.264 42.266 16.515
15 1 4 0.0441223 48.439 43.523 17.081
16 1 6 0.122302 47.005 43.735 14.553
17 2 3 0.00771179 39.398 13.637 36.485
18 2 3 0.00771179 38.373 13.652 37.540
19 2 10 -0.314215 38.420 12.669 38.535
20 2 3 0.00771179 39.056 11.453 38.170
21 2 3 0.00771179 40.421 11.805 37.577
22 2 10 -0.314215 40.103 12.415 36.293
23 2 4 0.0441223 38.958 13.922 35.485
24 2 4 0.0441223 40.172 14.436 36.683
25 2 4 0.0441223 37.358 13.616 37.045
26 2 4 0.0441223 38.384 14.667 38.035
27 2 6 0.122302 38.573 12.981 39.511
28 2 4 0.0441223 38.462 11.002 37.325
29 2 4 0.0441223 39.112 10.725 38.967
30 2 4 0.0441223 41.082 10.947 37.492
31 2 4 0.0441223 40.915 12.618 38.174
32 2 6 0.122302 39.473 11.735 35.800
33 3 3 0.00771179 19.000 19.434 46.615
34 3 3 0.00771179 18.020 18.378 46.323
35 3 10 -0.314215 17.363 18.394 45.088
36 3 3 0.00771179 17.255 19.666 44.465
37 3 3 0.00771179 18.651 20.288 44.438
38 3 10 -0.314215 18.920 20.619 45.830
39 3 4 0.0441223 18.946 19.754 47.698
40 3 4 0.0441223 20.050 19.033 46.500
41 3 4 0.0441223 17.244 18.382 47.144
42 3 4 0.0441223 18.525 17.375 46.450
43 3 6 0.122302 17.522 17.593 44.450
44 3 4 0.0441223 16.640 20.322 45.144
45 3 4 0.0441223 16.777 19.646 43.496
46 3 4 0.0441223 18.723 21.144 43.772
47 3 4 0.0441223 19.423 19.519 44.165
48 3 6 0.122302 18.097 21.184 46.155
49 4 3 0.00771179 20.316 53.664 10.686
50 4 3 0.00771179 19.725 54.935 10.243
51 4 10 -0.314215 20.571 56.028 10.024
52 4 3 0.00771179 21.791 56.018 10.751
53 4 3 0.00771179 22.454 54.659 10.521
54 4 10 -0.314215 21.617 53.726 11.262
55 4 4 0.0441223 19.650 53.143 11.436
56 4 4 0.0441223 20.373 52.939 9.821
57 4 4 0.0441223 18.935 55.236 10.994
58 4 4 0.0441223 19.129 54.746 9.302
59 4 6 0.122302 20.625 56.408 9.061
60 4 4 0.0441223 21.531 56.051 11.846
61 4 4 0.0441223 22.443 56.853 10.535
62 4 4 0.0441223 23.496 54.637 10.829
63 4 4 0.0441223 22.362 54.348 9.446
64 4 6 0.122302 21.538 54.118 12.232
65 5 3 0.00771179 42.386 13.367 40.816
66 5 3 0.00771179 43.355 13.198 39.723
67 5 10 -0.314215 43.664 14.304 38.923
68 5 3 0.00771179 42.661 15.307 38.845
69 5 3 0.00771179 42.254 15.665 40.275
70 5 10 -0.314215 41.521 14.495 40.738
71 5 4 0.0441223 41.727 12.455 40.922
72 5 4 0.0441223 42.925 13.433 41.807
73 5 4 0.0441223 42.991 12.362 39.056
74 5 4 0.0441223 44.315 12.786 40.154
75 5 6 0.122302 44.643 14.646 38.935
76 5 4 0.0441223 41.752 14.837 38.375
77 5 4 0.0441223 42.939 16.166 38.252
78 5 4 0.0441223 41.676 16.584 40.335
79 5 4 0.0441223 43.155 15.730 40.941
80 5 6 0.122302 40.787 14.308 40.011
81 6 3 0.00771179 17.997 43.644 39.883
82 6 3 0.00771179 17.233 44.900 39.856
83 6 10 -0.314215 15.836 44.836 39.912
84 6 3 0.00771179 15.255 43.632 39.435
85 6 3 0.00771179 15.961 42.469 40.134
86 6 10 -0.314215 17.292 42.455 39.543
87 6 4 0.0441223 18.896 43.698 39.199
88 6 4 0.0441223 18.442 43.481 40.908
89 6 4 0.0441223 17.530 45.473 38.929
90 6 4 0.0441223 17.598 45.560 40.697
91 6 6 0.122302 15.369 45.268 40.731
92 6 4 0.0441223 15.519 43.539 38.344
93 6 4 0.0441223 14.178 43.593 39.524
94 6 4 0.0441223 15.434 41.525 40.027
95 6 4 0.0441223 16.125 42.700 41.221
96 6 6 0.122302 17.144 42.435 38.504
97 7 3 0.00771179 44.968 19.254 28.657
98 7 3 0.00771179 44.616 20.367 27.762
99 7 10 -0.314215 44.834 21.676 28.203
100 7 3 0.00771179 44.835 21.860 29.611
101 7 3 0.00771179 45.795 20.832 30.211
102 7 10 -0.314215 45.105 19.561 30.041
103 7 4 0.0441223 44.214 18.415 28.581
104 7 4 0.0441223 45.939 18.781 28.327
105 7 4 0.0441223 43.528 20.259 27.477
106 7 4 0.0441223 45.156 20.222 26.781
107 7 6 0.122302 45.513 22.254 27.674
108 7 4 0.0441223 43.811 21.580 29.988
109 7 4 0.0441223 45.043 22.873 29.926
110 7 4 0.0441223 46.054 21.044 31.245
111 7 4 0.0441223 46.726 20.747 29.589
112 7 6 0.122302 44.149 19.695 30.453
113 8 3 0.00771179 25.816 15.786 9.281
114 8 3 0.00771179 26.931 15.048 9.894
115 8 10 -0.314215 28.240 15.416 9.565
116 8 3 0.00771179 28.404 16.047 8.303
117 8 3 0.00771179 27.395 17.193 8.224
118 8 10 -0.314215 26.107 16.525 8.099
119 8 4 0.0441223 24.958 15.095 9.032
120 8 4 0.0441223 25.376 16.513 10.025
121 8 4 0.0441223 26.796 13.950 9.662
122 8 4 0.0441223 26.816 15.091 11.017
123 8 6 0.122302 28.845 15.774 10.327
124 8 4 0.0441223 28.090 15.307 7.513
125 8 4 0.0441223 29.418 16.355 8.089
126 8 4 0.0441223 27.599 17.885 7.412
127 8 4 0.0441223 27.346 17.746 9.200
128 8 6 0.122302 26.208 15.854 7.298
129 9 3 0.00771179 31.021 58.472 43.010
130 9 3 0.00771179 30.730 57.192 43.673
131 9 10 -0.314215 31.680 56.168 43.601
132 9 3 0.00771179 32.553 56.214 42.481
133 9 3 0.00771179 33.146 57.622 42.415
134 9 10 -0.314215 32.027 58.459 42.003
135 9 4 0.0441223 30.091 58.907 42.538
136 9 4 0.0441223 31.329 59.245 43.774
137 9 4 0.0441223 29.749 56.801 43.269
138 9 4 0.0441223 30.500 57.395 44.760
139 9 6 0.122302 32.106 55.845 44.490
140 9 4 0.0441223 31.919 56.104 41.556
141 9 4 0.0441223 33.301 55.434 42.469
142 9 4 0.0441223 34.002 57.692 41.750
143 9 4 0.0441223 33.422 57.985 43.441
144 9 6 0.122302 31.636 58.010 41.139
145 10 3 0.00771179 22.224 38.082 24.471
146 10 3 0.00771179 22.195 38.895 23.246
147 10 10 -0.314215 21.943 38.260 22.026
148 10 3 0.00771179 22.285 36.883 21.965
149 10 3 0.00771179 21.644 36.194 23.171
150 10 10 -0.314215 22.414 36.681 24.308
151 10 4 0.0441223 23.027 38.441 25.181
152 10 4 0.0441223 21.264 38.219 25.052
153 10 4 0.0441223 23.177 39.449 23.168
154 10 4 0.0441223 21.441 39.725 23.384
155 10 6 0.122302 21.085 38.533 21.511
156 10 4 0.0441223 23.398 36.805 22.123
157 10 4 0.0441223 22.045 36.407 21.025
158 10 4 0.0441223 21.639 35.111 23.089
159 10 4 0.0441223 20.601 36.575 23.338
160 10 6 0.122302 23.421 36.501 24.071
161 11 3 0.00771179 41.417 2.810 13.815
162 11 3 0.00771179 40.524 3.491 12.866
163 11 10 -0.314215 40.954 3.664 11.546
164 11 3 0.00771179 42.361 3.692 11.355
165 11 3 0.00771179 42.946 2.461 12.046
166 11 10 -0.314215 42.796 2.745 13.467
167 11 4 0.0441223 41.360 3.282 14.840
168 11 4 0.0441223 41.070 1.748 13.982
169 11 4 0.0441223 40.262 4.503 13.295
170 11 4 0.0441223 39.532 2.950 12.855
171 11 6 0.122302 40.409 3.196 10.799
172 11 4 0.0441223 42.760 4.581 11.922
173 11 4 0.0441223 42.667 3.789 10.323
174 11 4 0.0441223 43.974 2.258 11.756
175 11 4 0.0441223 42.306 1.557 11.858
176 11 6 0.122302 43.227 3.690 13.618
177 12 3 0.00771179 58.859 10.376 41.920
178 12 3 0.00771179 57.893 9.285 42.115
179 12 10 -0.314215 56.528 9.565 41.984
180 12 3 0.00771179 56.150 10.911 42.230
181 12 3 0.00771179 57.055 11.808 41.385
182 12 10 -0.314215 58.357 11.704 42.028
183 12 4 0.0441223 59.722 10.292 42.644
184 12 4 0.0441223 59.344 10.288 40.903
185 12 4 0.0441223 58.071 8.835 43.136
186 12 4 0.0441223 58.157 8.441 41.411
187 12 6 0.122302 56.010 9.084 41.226
188 12 4 0.0441223 56.405 11.142 43.303
189 12 4 0.0441223 55.097 11.109 42.086
190 12 4 0.0441223 56.693 12.830 41.312
191 12 4 0.0441223 57.198 11.374 40.359
192 12 6 0.122302 58.196 11.923 43.042
193 13 3 0.00771179 39.667 38.505 27.133
194 13 3 0.00771179 40.983 38.023 26.686
195 13 10 -0.314215 42.092 38.242 27.511
196 13 3 0.00771179 41.995 39.349 28.394
197 13 3 0.00771179 40.672 39.223 29.149
198 13 10 -0.314215 39.660 39.509 28.142
199 13 4 0.0441223 39.064 38.906 26.266
200 13 4 0.0441223 39.049 37.642 27.522
201 13 4 0.0441223 41.195 38.471 25.671
202 13 4 0.0441223 40.906 36.917 26.470
203 13 6 0.122302 42.582 37.409 27.886
204 13 4 0.0441223 41.900 40.277 27.761
205 13 4 0.0441223 42.849 39.474 29.045
206 13 4 0.0441223 40.612 39.878 30.015
207 13 4 0.0441223 40.489 38.159 29.456
208 13 6 0.122302 39.935 40.425 27.709
209 14 3 0.00771179 24.114 16.817 24.831
210 14 3 0.00771179 24.734 15.609 25.396
211 14 10 -0.314215 25.127 14.587 24.526
212 14 3 0.00771179 24.424 14.523 23.294
213 14 3 0.00771179 24.456 15.919 22.670
214 14 10 -0.314215 23.572 16.706 23.519
215 14 4 0.0441223 23.284 17.200 25.496
216 14 4 0.0441223 24.861 17.664 24.808
217 14 4 0.0441223 24.026 15.177 26.164
218 14 4 0.0441223 25.627 15.920 26.014
219 14 6 0.122302 26.137 14.357 24.480
220 14 4 0.0441223 23.342 14.318 23.533
221 14 4 0.0441223 24.772 13.748 22.624
222 14 4 0.0441223 24.163 15.925 21.624
223 14 4 0.0441223 25.471 16.384 22.791
224 14 6 0.122302 22.670 16.171 23.569
225 15 3 0.00771179 15.360 23.309 15.064
226 15 3 0.00771179 15.470 23.611 16.499
227 15 10 -0.314215 16.744 23.766 17.056
228 15 3 0.00771179 17.798 23.095 16.381
229 15 3 0.00771179 17.714 23.473 14.902
230 15 10 -0.314215 16.521 22.784 14.428
231 15 4 0.0441223 14.520 22.581 14.863
232 15 4 0.0441223 15.062 24.237 14.493
233 15 4 0.0441223 14.923 22.804 17.071
234 15 4 0.0441223 14.865 24.539 16.718
235 15 6 0.122302 16.984 24.693 17.455
236 15 4 0.0441223 17.579 21.991 16.429
237 15 4 0.0441223 18.776 23.262 16.810
238 15 4 0.0441223 18.609 23.212 14.344
239 15 4 0.0441223 17.489 24.566 14.783
240 15 6 0.122302 16.637 21.780 14.710
241 16 3 0.00771179 51.148 7.504 13.545
242 16 3 0.00771179 51.878 7.242 14.795
243 16 10 -0.314215 51.184 7.322 16.007
244 16 3 0.00771179 50.040 8.164 16.007
245 16 3 0.00771179 49.170 7.762 14.816
246 16 10 -0.314215 49.923 8.221 13.656
247 16 4 0.0441223 51.791 8.067 12.807
248 16 4 0.0441223 50.914 6.531 13.020
249 16 4 0.0441223 52.763 7.943 14.839
250 16 4 0.0441223 52.359 6.223 14.722
251 16 6 0.122302 51.106 6.458 16.574
252 16 4 0.0441223 50.393 9.212 15.789
253 16 4 0.0441223 49.501 8.180 16.943
254 16 4 0.0441223 48.165 8.173 14.864
255 16 4 0.0441223 49.127 6.645 14.715
256 16 6 0.122302 50.138 9.233 13.835
257 17 3 0.00771179 48.695 50.447 28.414
258 17 3 0.00771179 50.044 50.232 27.870
259 17 10 -0.314215 50.465 48.921 27.619
260 17 3 0.00771179 49.834 47.913 28.395
261 17 3 0.00771179 48.323 48.116 28.277
262 17 10 -0.314215 48.069 49.331 29.039
263 17 4 0.0441223 48.689 51.290 29.167
264 17 4 0.0441223 47.999 50.802 27.599
265 17 4 0.0441223 50.787 50.721 28.567
266 17 4 0.0441223 50.148 50.832 26.919
267 17 6 0.122302 50.679 48.666 26.638
268 17 4 0.0441223 50.087 48.110 29.475
269 17 4 0.0441223 50.150 46.907 28.155
270 17 4 0.0441223 47.750 47.262 28.628
271 17 4 0.0441223 48.037 48.366 27.220
272 17 6 0.122302 48.509 49.179 29.979
273 18 3 0.00771179 8.719 43.446 52.022
274 18 3 0.00771179 9.160 42.056 52.213
275 18 10 -0.314215 8.191 41.064 52.399
276 18 3 0.00771179 6.954 41.506 52.940
277 18 3 0.00771179 6.480 42.692 52.101
278 18 10 -0.314215 7.400 43.765 52.451
279 18 4 0.0441223 9.416 44.169 52.540
280 18 4 0.0441223 8.789 43.730 50.931
281 18 4 0.0441223 9.875 42.030 53.088
282 18 4 0.0441223 9.812 41.763 51.338
283 18 6 0.122302 8.127 40.315 51.686
284 18 4 0.0441223 7.165 41.921 53.967
285 18 4 0.0441223 6.210 40.728 53.040
286 18 4 0.0441223 5.438 42.947 52.275
287 18 4 0.0441223 6.653 42.500 51.008
288 18 6 0.122302 7.389 43.822 53.499
289 19 3 0.00771179 27.075 13.462 57.107
290 19 3 0.00771179 26.135 12.959 58.120
291 19 10 -0.314215 25.780 11.606 58.093
292 19 3 0.00771179 25.882 10.968 56.828
293 19 3 0.00771179 27.278 11.258 56.275
294 19 10 -0.314215 27.237 12.673 55.933
295 19 4 0.0441223 26.791 14.501 56.767
296 19 4 0.0441223 28.102 13.592 57.560
297 19 4 0.0441223 25.192 13.580 58.064
298 19 4 0.0441223 26.546 13.204 59.143
299 19 6 0.122302 26.039 11.025 58.911
300 19 4 0.0441223 25.162 11.484 56.131
301 19 4 0.0441223 25.638 9.915 56.842
302 19 4 0.0441223 27.544 10.621 55.435
303 19 4 0.0441223 28.051 11.173 57.084
304 19 6 0.122302 26.391 12.797 55.323
305 20 3 0.00771179 46.400 56.928 27.832
306 20 3 0.00771179 46.813 56.367 26.537
307 20 10 -0.314215 47.550 55.178 26.526
308 20 3 0.00771179 48.305 54.909 27.699
309 20 3 0.00771179 47.364 55.049 28.896
310 20 10 -0.314215 47.110 56.481 28.982
311 20 4 0.0441223 46.461 58.056 27.827
312 20 4 0.0441223 45.306 56.714 28.017
313 20 4 0.0441223 47.399 57.158 25.982
314 20 4 0.0441223 45.894 56.228 25.896
315 20 6 0.122302 47.121 54.352 26.069
316 20 4 0.0441223 49.064 55.735 27.807
317 20 4 0.0441223 48.834 53.967 27.679
318 20 4 0.0441223 47.775 54.631 29.811
319 20 4 0.0441223 46.366 54.586 28.673
320 20 6 0.122302 48.054 56.940 28.996
321 21 3 0.00771179 11.377 50.703 44.549
322 21 3 0.00771179 11.001 50.727 45.970
323 21 10 -0.314215 10.872 49.511 46.651
324 21 3 0.00771179 10.560 48.384 45.845
325 21 3 0.00771179 11.562 48.350 44.690
326 21 10 -0.314215 11.177 49.477 43.852
327 21 4 0.0441223 10.828 51.502 43.968
328 21 4 0.0441223 12.466 50.976 44.430
329 21 4 0.0441223 10.032 51.299 46.068
330 21 4 0.0441223 11.741 51.374 46.526
331 21 6 0.122302 11.518 49.333 47.442
332 21 4 0.0441223 9.555 48.576 45.373
333 21 4 0.0441223 10.503 47.452 46.389
334 21 4 0.0441223 11.566 47.402 44.158
335 21 4 0.0441223 12.596 48.594 45.054
336 21 6 0.122302 10.151 49.358 43.665
337 22 3 0.00771179 51.280 54.437 43.431
338 22 3 0.00771179 50.105 54.995 44.117
339 22 10 -0.314215 50.222 56.240 44.744
340 22 3 0.00771179 51.533 56.602 45.155
341 22 3 0.00771179 52.461 56.418 43.954
342 22 10 -0.314215 52.549 54.973 43.792
343 22 4 0.0441223 51.344 53.318 43.575
344 22 4 0.0441223 51.175 54.565 42.313
345 22 4 0.0441223 49.752 54.239 44.880
346 22 4 0.0441223 49.248 55.040 43.383
347 22 6 0.122302 49.634 57.015 44.386
348 22 4 0.0441223 51.867 55.845 45.920
349 22 4 0.0441223 51.602 57.584 45.602
350 22 4 0.0441223 53.430 56.893 44.088
351 22 4 0.0441223 51.974 56.790 43.014
352 22 6 0.122302 52.821 54.594 44.733
353 23 3 0.00771179 17.470 20.955 10.919
354 23 3 0.00771179 18.116 22.150 11.482
355 23 10 -0.314215 17.444 23.374 11.408
356 23 3 0.00771179 16.504 23.498 10.351
357 23 3 0.00771179 15.580 22.281 10.409
358 23 10 -0.314215 16.423 21.174 9.979
359 23 4 0.0441223 18.225 20.281 10.417
360 23 4 0.0441223 17.041 20.318 11.747
361 23 4 0.0441223 19.129 22.265 10.994
362 23 4 0.0441223 18.372 21.943 12.563
363 23 6 0.122302 17.179 23.831 12.300
364 23 4 0.0441223 17.072 23.405 9.382
365 23 4 0.0441223 15.971 24.438 10.338
366 23 4 0.0441223 14.684 22.397 9.805
367 23 4 0.0441223 15.302 22.044 11.471
368 23 6 0.122302 16.845 21.473 9.066
369 24 3 0.00771179 14.354 56.443 44.153
370 24 3 0.00771179 15.551 56.672 44.976
371 24 10 -0.314215 16.112 57.953 45.001
372 24 3 0.00771179 15.862 58.758 43.858
373 24 3 0.00771179 14.355 58.742 43.602
374 24 10 -0.314215 14.090 57.391 43.125
375 24 4 0.0441223 14.386 55.426 43.660
376 24 4 0.0441223 13.434 56.401 44.808
377 24 4 0.0441223 16.346 55.937 44.654
378 24 4 0.0441223 15.322 56.358 46.037
379 24 6 0.122302 16.125 58.454 45.909
380 24 4 0.0441223 16.329 58.239 42.973
381 24 4 0.0441223 16.275 59.755 43.918
382 24 4 0.0441223 14.033 59.513 42.907
383 24 4 0.0441223 13.787 58.830 44.567
384 24 6 0.122302 14.761 57.229 42.335
385 25 3 0.00771179 30.468 27.011 44.050
386 25 3 0.00771179 29.862 25.675 43.953
387 25 10 -0.314215 28.501 25.532 44.242
388 25 3 0.00771179 27.951 26.508 45.115
389 25 3 0.00771179 28.332 27.884 44.569
390 25 10 -0.314215 29.764 27.981 44.819
391 25 4 0.0441223 31.514 26.956 44.471
392 25 4 0.0441223 30.609 27.450 43.018
393 25 4 0.0441223 30.447 24.975 44.621
394 25 4 0.0441223 30.056 25.267 42.918
395 25 6 0.122302 27.879 25.212 43.477
396 25 4 0.0441223 28.482 26.412 46.104
397 25 4 0.0441223 26.890 26.397 45.292
398 25 4 0.0441223 27.763 28.693 45.019
399 25 4 0.0441223 28.226 27.912 43.451
400 25 6 0.122302 29.893 27.763 45.838
401 26 3 0.00771179 29.322 16.862 20.939
402 26 3 0.00771179 30.105 15.647 21.209
403 26 10 -0.314215 31.462 15.633 20.867
404 26 3 0.00771179 31.841 16.514 19.819
405 26 3 0.00771179 31.299 17.902 20.163
406 26 10 -0.314215 29.859 17.773 19.985
407 26 4 0.0441223 28.277 16.605 20.594
408 26 4 0.0441223 29.161 17.442 21.895
409 26 4 0.0441223 29.596 14.778 20.696
410 26 4 0.0441223 30.007 15.393 22.305
411 26 6 0.122302 32.149 15.525 21.635
412 26 4 0.0441223 31.291 16.190 18.891
413 26 4 0.0441223 32.900 16.512 19.600
414 26 4 0.0441223 31.736 18.692 19.558
415 26 4 0.0441223 31.442 18.126 21.254
416 26 6 0.122302 29.722 17.376 19.024
417 27 3 0.00771179 4.191 17.784 23.072
418 27 3 0.00771179 5.642 17.672 22.862
419 27 10 -0.314215 6.437 17.197 23.911
420 27 3 0.00771179 5.913 17.391 25.217
421 27 3 0.00771179 4.482 16.853 25.225
422 27 10 -0.314215 3.737 17.812 24.421
423 27 4 0.0441223 3.776 18.706 22.568
424 27 4 0.0441223 3.657 16.929 22.562
425 27 4 0.0441223 6.031 18.684 22.545
426 27 4 0.0441223 5.824 17.028 21.952
427 27 6 0.122302 6.951 16.310 23.760
428 27 4 0.0441223 5.824 18.502 25.383
429 27 4 0.0441223 6.527 16.982 26.007
430 27 4 0.0441223 4.079 16.730 26.227
431 27 4 0.0441223 4.418 15.884 24.662
432 27 6 0.122302 3.949 18.755 24.829
433 28 3 0.00771179 45.894 35.259 55.002
434 28 3 0.00771179 47.101 34.758 55.676
435 28 10 -0.314215 47.020 33.563 56.397
436 28 3 0.00771179 45.731 33.228 56.891
437 28 3 0.00771179 44.750 33.319 55.722
438 28 10 -0.314215 44.646 34.747 55.457
439 28 4 0.0441223 45.829 36.385 55.065
440 28 4 0.0441223 45.952 35.049 53.893
441 28 4 0.0441223 47.482 35.570 56.365
442 28 4 0.0441223 47.926 34.662 54.910
443 28 6 0.122302 47.598 32.766 56.072
444 28 4 0.0441223 45.426 34.038 57.612
445 28 4 0.0441223 45.688 32.282 57.412
446 28 4 0.0441223 43.792 32.851 55.932
447 28 4 0.0441223 45.199 32.879 54.791
448 28 6 0.122302 44.413 35.194 56.378
449 29 3 0.00771179 36.941 11.405 53.085
450 29 3 0.00771179 37.437 10.281 53.894
451 29 10 -0.314215 38.451 10.523 54.827
452 29 3 0.00771179 39.292 11.633 54.548
453 29 3 0.00771179 38.392 12.839 54.280
454 29 10 -0.314215 37.784 12.548 52.989
455 29 4 0.0441223 36.713 11.077 52.028
456 29 4 0.0441223 35.946 11.761 53.482
457 29 4 0.0441223 37.780 9.466 53.191
458 29 4 0.0441223 36.560 9.810 54.429
459 29 6 0.122302 38.231 10.365 55.827
460 29 4 0.0441223 39.819 11.421 53.575
461 29 4 0.0441223 40.043 11.820 55.303
462 29 4 0.0441223 38.929 13.784 54.298
463 29 4 0.0441223 37.537 12.866 55.008
464 29 6 0.122302 38.579 12.328 52.340
465 30 3 0.00771179 49.356 51.861 5.162
466 30 3 0.00771179 50.474 51.996 4.216
467 30 10 -0.314215 51.739 51.542 4.604
468 30 3 0.00771179 51.982 51.514 6.003
469 30 3 0.00771179 50.822 50.764 6.658
470 30 10 -0.314215 49.694 51.676 6.533
471 30 4 0.0441223 48.668 52.756 5.112
472 30 4 0.0441223 48.698 50.992 4.865
473 30 4 0.0441223 50.556 53.084 3.922
474 30 4 0.0441223 50.189 51.487 3.249
475 30 6 0.122302 52.158 50.765 4.059
476 30 4 0.0441223 51.913 52.575 6.377
477 30 4 0.0441223 52.952 51.125 6.277
478 30 4 0.0441223 51.028 50.476 7.686
479 30 4 0.0441223 50.540 49.862 6.053
480 30 6 0.122302 50.019 52.593 6.927
481 31 3 0.00771179 9.883 11.034 31.131
482 31 3 0.00771179 10.461 12.326 30.733
483 31 10 -0.314215 11.842 12.408 30.526
484 31 3 0.00771179 12.628 11.456 31.229
485 31 3 0.00771179 12.037 10.074 30.952
486 31 10 -0.314215 10.777 10.073 31.684
487 31 4 0.0441223 9.048 11.173 31.880
488 31 4 0.0441223 9.379 10.544 30.246
489 31 4 0.0441223 10.166 13.096 31.505
490 31 4 0.0441223 9.935 12.682 29.799
491 31 6 0.122302 12.172 12.646 29.573
492 31 4 0.0441223 12.475 11.640 32.330
493 31 4 0.0441223 13.687 11.517 31.024
494 31 4 0.0441223 12.699 9.262 31.239
495 31 4 0.0441223 11.749 9.974 29.871
496 31 6 0.122302 11.015 10.359 32.665
497 32 3 0.00771179 52.473 33.842 41.902
498 32 3 0.00771179 53.661 33.238 42.523
499 32 10 -0.314215 54.750 34.061 42.831
500 32 3 0.00771179 54.870 35.241 42.050
501 32 3 0.00771179 53.519 35.956 42.082
502 32 10 -0.314215 52.650 35.109 41.275
503 32 4 0.0441223 52.022 33.154 41.128
504 32 4 0.0441223 51.654 33.967 42.670
505 32 4 0.0441223 54.020 32.401 41.854
506 32 4 0.0441223 53.340 32.698 43.462
507 32 6 0.122302 55.014 34.153 43.829
508 32 4 0.0441223 55.024 34.922 40.980
509 32 4 0.0441223 55.697 35.877 42.333
510 32 4 0.0441223 53.571 36.980 41.723
511 32 4 0.0441223 53.079 35.929 43.114
512 32 6 0.122302 53.152 34.967 40.364
513 33 3 0.00771179 18.512 22.324 3.172
514 33 3 0.00771179 19.291 21.176 2.683
515 33 10 -0.314215 18.626 19.970 2.439
516 33 3 0.00771179 17.431 19.764 3.179
517 33 3 0.00771179 16.557 21.005 3.000
518 33 10 -0.314215 17.247 22.038 3.760
519 33 4 0.0441223 19.098 22.922 3.931
520 33 4 0.0441223 18.327 23.055 2.330
521 33 4 0.0441223 20.130 20.983 3.415
522 33 4 0.0441223 19.834 21.486 1.742
523 33 6 0.122302 18.618 19.614 1.465
524 33 4 0.0441223 17.711 19.741 4.271
525 33 4 0.0441223 16.918 18.842 2.945
526 33 4 0.0441223 15.530 20.852 3.320
527 33 4 0.0441223 16.582 21.358 1.934
528 33 6 0.122302 17.402 21.636 4.717
529 34 3 0.00771179 29.907 16.021 51.621
530 34 3 0.00771179 31.264 16.046 52.187
531 34 10 -0.314215 31.907 17.280 52.332
532 34 3 0.00771179 31.479 18.306 51.448
533 34 3 0.00771179 29.954 18.383 51.534
534 34 10 -0.314215 29.500 17.165 50.878
535 34 4 0.0441223 29.762 15.125 50.947
536 34 4 0.0441223 29.145 15.873 52.442
537 34 4 0.0441223 31.919 15.370 51.562
538 34 4 0.0441223 31.243 15.530 53.192
539 34 6 0.122302 32.147 17.586 53.293
540 34 4 0.0441223 31.710 17.965 50.400
541 34 4 0.0441223 31.964 19.259 51.606
542 34 4 0.0441223 29.548 19.288 51.088
543 34 4 0.0441223 29.611 18.289 52.599
544 34 6 0.122302 29.976 17.148 49.942
545 35 3 0.00771179 29.421 44.150 45.084
546 35 3 0.00771179 30.318 43.535 46.074
547 35 10 -0.314215 30.553 42.158 46.002
548 35 3 0.00771179 29.529 41.390 45.387
549 35 3 0.00771179 29.210 42.039 44.040
550 35 10 -0.314215 28.531 43.278 44.395
551 35 4 0.0441223 28.788 44.959 45.555
552 35 4 0.0441223 30.023 44.695 44.299
553 35 4 0.0441223 29.927 43.781 47.105
554 35 4 0.0441223 31.312 44.072 46.040
555 35 6 0.122302 31.523 41.845 45.815
556 35 4 0.0441223 28.598 41.507 46.012
557 35 4 0.0441223 29.750 40.335 45.311
558 35 4 0.0441223 28.621 41.400 43.388
559 35 4 0.0441223 30.153 42.359 43.520
560 35 6 0.122302 27.755 43.004 45.046
561 36 3 0.00771179 21.938 9.011 10.825
562 36 3 0.00771179 22.171 9.455 12.208
563 36 10 -0.314215 23.300 8.979 12.883
564 36 3 0.00771179 23.805 7.730 12.436
565 36 3 0.00771179 23.977 7.817 10.919
566 36 10 -0.314215 22.613 7.829 10.408
567 36 4 0.0441223 20.837 8.845 10.630
568 36 4 0.0441223 22.226 9.828 10.100
569 36 4 0.0441223 21.254 9.203 12.818
570 36 4 0.0441223 22.190 10.584 12.223
571 36 6 0.122302 24.013 9.674 13.175
572 36 4 0.0441223 23.001 6.960 12.610
573 36 4 0.0441223 24.699 7.403 12.949
574 36 4 0.0441223 24.580 7.010 10.512
575 36 4 0.0441223 24.410 8.810 10.625
576 36 6 0.122302 22.137 6.998 10.839
577 37 3 0.00771179 21.760 38.285 52.687
578 37 3 0.00771179 22.336 39.634 52.578
579 37 10 -0.314215 23.698 39.760 52.283
580 37 3 0.00771179 24.514 38.659 52.656
581 37 3 0.00771179 23.868 37.393 52.093
582 37 10 -0.314215 22.672 37.213 52.904
583 37 4 0.0441223 20.992 38.235 53.514
584 37 4 0.0441223 21.175 38.036 51.754
585 37 4 0.0441223 22.124 40.186 53.541
586 37 4 0.0441223 21.746 40.215 51.811
587 37 6 0.122302 23.955 40.229 51.395
588 37 4 0.0441223 24.454 38.561 53.777
589 37 4 0.0441223 25.554 38.765 52.384
590 37 4 0.0441223 24.531 36.532 52.111
591 37 4 0.0441223 23.491 37.569 51.050
592 37 6 0.122302 22.995 37.241 53.903
593 38 3 0.00771179 58.031 39.673 1.269
594 38 3 0.00771179 57.940 38.293 1.769
595 38 10 -0.314215 57.057 38.017 2.819
596 38 3 0.00771179 56.752 39.112 3.671
597 38 3 0.00771179 56.322 40.282 2.785
598 38 10 -0.314215 57.553 40.701 2.129
599 38 4 0.0441223 59.096 39.939 0.999
600 38 4 0.0441223 57.469 39.771 0.294
601 38 4 0.0441223 58.976 37.960 2.073
602 38 4 0.0441223 57.693 37.612 0.902
603 38 6 0.122302 56.275 37.364 2.629
604 38 4 0.0441223 57.714 39.435 4.161
605 38 4 0.0441223 56.039 38.882 4.450
606 38 4 0.0441223 55.839 41.081 3.340
607 38 4 0.0441223 55.653 39.927 1.956
608 38 6 0.122302 58.252 40.850 2.898
609 39 3 0.00771179 33.169 58.319 2.546
610 39 3 0.00771179 33.367 56.872 2.373
611 39 10 -0.314215 34.665 56.393 2.166
612 39 3 0.00771179 35.578 57.316 1.591
613 39 3 0.00771179 35.512 58.604 2.412
614 39 10 -0.314215 34.212 59.170 2.082
615 39 4 0.0441223 32.217 58.664 2.043
616 39 4 0.0441223 33.006 58.562 3.637
617 39 4 0.0441223 32.715 56.527 1.517
618 39 4 0.0441223 32.924 56.340 3.266
619 39 6 0.122302 35.061 55.755 2.881
620 39 4 0.0441223 35.187 57.584 0.568
621 39 4 0.0441223 36.582 56.934 1.476
622 39 4 0.0441223 36.338 59.281 2.210
623 39 4 0.0441223 35.462 58.373 3.510
624 39 6 0.122302 34.174 59.210 1.033
625 40 3 0.00771179 23.925 9.136 5.396
626 40 3 0.00771179 23.052 8.101 4.822
627 40 10 -0.314215 21.957 8.501 4.049
628 40 3 0.00771179 21.447 9.797 4.326
629 40 3 0.00771179 22.623 10.773 4.293
630 40 10 -0.314215 23.386 10.451 5.491
631 40 4 0.0441223 24.272 8.849 6.433
632 40 4 0.0441223 24.881 9.215 4.799
633 40 4 0.0441223 22.679 7.448 5.666
634 40 4 0.0441223 23.688 7.395 4.211
635 40 6 0.122302 21.944 8.216 3.052
636 40 4 0.0441223 21.080 9.793 5.392
637 40 4 0.0441223 20.626 10.095 3.690
638 40 4 0.0441223 22.312 11.813 4.250
639 40 4 0.0441223 23.310 10.539 3.436
640 40 6 0.122302 22.699 10.478 6.285
641 41 3 0.00771179 48.577 56.167 39.824
642 41 3 0.00771179 49.076 57.361 39.125
643 41 10 -0.314215 48.799 57.506 37.762
644 41 3 0.00771179 48.571 56.300 37.048
645 41 3 0.00771179 47.520 55.499 37.817
646 41 10 -0.314215 48.220 55.052 39.014
647 41 4 0.0441223 49.327 55.794 40.582
648 41 4 0.0441223 47.669 56.429 40.442
649 41 4 0.0441223 50.196 57.412 39.273
650 41 4 0.0441223 48.702 58.277 39.669
651 41 6 0.122302 48.218 58.315 37.474
652 41 4 0.0441223 49.519 55.693 37.101
653 41 4 0.0441223 48.322 56.441 36.006
654 41 4 0.0441223 47.099 54.682 37.237
655 41 4 0.0441223 46.702 56.171 38.189
656 41 6 0.122302 49.097 54.584 38.676
657 42 3 0.00771179 5.491 3.730 1.513
658 42 3 0.00771179 5.008 4.759 2.447
659 42 10 -0.314215 3.669 4.725 2.849
660 42 3 0.00771179 2.770 4.097 1.946
661 42 3 0.00771179 3.351 2.727 1.594
662 42 10 -0.314215 4.504 3.034 0.759
663 42 4 0.0441223 6.225 4.163 0.772
664 42 4 0.0441223 6.090 2.950 2.070
665 42 4 0.0441223 5.224 5.772 1.995
666 42 4 0.0441223 5.662 4.742 3.368
667 42 6 0.122302 3.474 4.573 3.856
668 42 4 0.0441223 2.784 4.691 0.989
669 42 4 0.0441223 1.749 4.051 2.297
670 42 4 0.0441223 2.632 2.072 1.109
671 42 4 0.0441223 3.774 2.228 2.507
672 42 6 0.122302 4.149 3.668 0.001
673 43 3 0.00771179 26.435 20.675 30.339
674 43 3 0.00771179 25.128 21.292 30.608
675 43 10 -0.314215 23.993 20.474 30.642
676 43 3 0.00771179 24.078 19.272 29.890
677 43 3 0.00771179 25.370 18.564 30.296
678 43 10 -0.314215 26.424 19.391 29.723
679 43 4 0.0441223 27.076 21.342 29.692
680 43 4 0.0441223 27.023 20.575 31.299
681 43 4 0.0441223 24.961 22.109 29.845
682 43 4 0.0441223 25.192 21.859 31.583
683 43 6 0.122302 23.475 20.409 31.537
684 43 4 0.0441223 24.212 19.560 28.809
685 43 4 0.0441223 23.204 18.641 29.963
686 43 4 0.0441223 25.410 17.529 29.965
687 43 4 0.0441223 25.523 18.621 31.407
688 43 6 0.122302 26.180 19.505 28.709
689 44 3 0.00771179 31.299 24.217 30.079
690 44 3 0.00771179 30.021 23.494 30.002
691 44 10 -0.314215 28.905 24.157 29.480
692 44 3 0.00771179 28.923 25.573 29.590
693 44 3 0.00771179 30.259 26.063 29.029
694 44 10 -0.314215 31.237 25.638 30.021
695 44 4 0.0441223 31.862 23.952 31.022
696 44 4 0.0441223 31.986 23.883 29.246
697 44 4 0.0441223 29.766 23.119 31.037
698 44 4 0.0441223 30.182 22.542 29.415
699 44 6 0.122302 28.484 23.779 28.611
700 44 4 0.0441223 28.940 25.826 30.688
701 44 4 0.0441223 28.068 26.063 29.146
702 44 4 0.0441223 30.275 27.133 28.842
703 44 4 0.0441223 30.526 25.503 28.093
704 44 6 0.122302 30.887 25.999 30.942
705 45 3 0.00771179 21.225 47.761 33.280
706 45 3 0.00771179 22.329 46.999 32.680
707 45 10 -0.314215 23.554 47.643 32.474
708 45 3 0.00771179 23.491 49.054 32.325
709 45 3 0.00771179 22.686 49.607 33.501
710 45 10 -0.314215 21.320 49.181 33.227
711 45 4 0.0441223 20.235 47.482 32.813
712 45 4 0.0441223 21.103 47.480 34.368
713 45 4 0.0441223 21.972 46.580 31.693
714 45 4 0.0441223 22.508 46.075 33.304
715 45 6 0.122302 24.379 47.281 32.988
716 45 4 0.0441223 22.878 49.268 31.405
717 45 4 0.0441223 24.454 49.530 32.205
718 45 4 0.0441223 22.784 50.683 33.615
719 45 4 0.0441223 22.970 49.089 34.456
720 45 6 0.122302 21.111 49.497 32.248
721 46 3 0.00771179 48.050 28.545 28.885
722 46 3 0.00771179 48.454 29.780 29.574