LAMMPS Atom File Created by AuToFF

     3 atoms
     2 bonds
     1 angles
     0 dihedrals
     0 impropers

     2 atom types
     1 bond types
     1 angle types
     0 dihedral types
     0 improper types

     0.73810    1.98480  xlo xhi
    -0.06750    0.86050  ylo yhi
     0.08070    0.08070  zlo zhi

Masses

1      16.0000  # OW
2       1.0080  # HW

Pair Coeffs  # lj/cut/coul/long

1     0.163406   3.174270
2     0.000000   0.000000

Bond Coeffs  # harmonic

1       600.401530      0.980000

Angle Coeffs  # harmonic

1        75.050191    109.470000

Atoms
#  atom  mol    type   charge         X           Y           Z
     1     1     1     -0.895170      1.016900     -0.067500      0.082400
     2     1     2      0.447585      1.984800     -0.021100      0.082300
     3     1     2      0.447585      0.738100      0.860500      0.080700

Bonds
#     NO.    Type  atom_i  atom_j
       1       1       1       2
       2       1       1       3

Angles
#     NO.    Type  atom_i  atom_j  atom_k
       1       1       2       1       3
