LAMMPS Description
4400 atoms
4350 bonds
7200 angles
10050 dihedrals
300 impropers
11 atom types
12 bond types
19 angle types
15 dihedral types
2 improper types
0.0 60 xlo xhi
0.0 60 ylo yhi
0.0 60 zlo zhi

Masses

1 12.01  # c
2 12.01  # c2
3 12.01  # c3
4 1.008  # h1
5 1.008  # hc
6 1.008  # hn
7 1.008  # hx
8 35.45  # cl
9 14.01  # n
10 14.01  # n3
11 16.00  # o

Pair Coeffs

1 0.0988 3.3152123099438304
2 0.0988 3.3152123099438304
3 0.1078 3.397709531243626
4 0.0208 2.4219972551363265
5 0.0208 2.600176998764394
6 0.0100 1.1064962079303013
7 0.0208 1.8874580242521226
8 0.2638 3.465952373053176
9 0.1636 3.1808647832482673
10 0.0858 3.36510263815969
11 0.1463 3.048120874245357

Bond Coeffs

1 481.8 1.3340
2 393.9 1.0870
3 232.5 1.5380
4 375.9 1.0970
5 375.9 1.0970
6 263.8 1.4620
7 261.2 1.4650
8 368.2 1.4060
9 156.2 1.8030
10 356.2 1.3790
11 652.6 1.2180
12 511.3 1.0190

Angle Coeffs

1 71.5 121.81
2 50.5 119.70
3 69.9 120.70
4 64.9 111.51
5 46.9 109.56
6 46.8 109.80
7 83.3 111.04
8 83.2 111.61
9 38.8 108.46
10 61.2 109.88
11 61.5 108.88
12 39.0 107.58
13 91.2 119.12
14 89.0 120.69
15 113.8 123.05
16 65.7 112.35
17 47.8 109.29
18 64.9 115.64
19 65.3 120.69

Dihedral Coeffs

1 1 2.175 2 180.0
2 1 2.5 2 180.0
3 1 6.65 2 180.0
4 1 0.15555555555555556 3 0.0
5 1 0.0 2 0.0
6 1 0.3 3 0.0
7 2 2.175 2 180.0 0.3 3 0.0
8 3 0.13 3 0.0 0.29 2 180.0 0.11 1 0.0
9 1 0.12 3 0.0
10 1 0.08 3 0.0
11 3 0.65 4 180.0 0.03 3 180.0 2.26 1 0.0
12 1 0.225 3 0.0
13 1 0.0 2 180.0
14 1 0.217 3 0.0
15 2 0.58 3 0.0 0.28 2 180.0

Improper Coeffs

1 10.5 -1 2
2 1.1 -1 2

Atoms

1 1 3 0.00771179 11.777 45.142 12.023
2 1 3 0.00771179 10.395 44.737 11.727
3 1 10 -0.314215 10.163 43.881 10.646
4 1 3 0.00771179 11.137 43.915 9.613
5 1 3 0.00771179 12.509 43.740 10.265
6 1 10 -0.314215 12.728 44.993 10.974
7 1 4 0.0441223 11.824 46.220 12.357
8 1 4 0.0441223 12.171 44.562 12.909
9 1 4 0.0441223 9.777 45.673 11.585
10 1 4 0.0441223 9.950 44.273 12.657
11 1 6 0.122302 9.757 42.949 10.850
12 1 4 0.0441223 11.134 44.956 9.181
13 1 4 0.0441223 10.955 43.218 8.808
14 1 4 0.0441223 13.294 43.509 9.550
15 1 4 0.0441223 12.470 42.953 11.065
16 1 6 0.122302 12.573 45.754 10.267
17 2 3 0.00771179 34.529 5.269 44.995
18 2 3 0.00771179 35.498 6.073 44.236
19 2 10 -0.314215 35.058 6.757 43.098
20 2 3 0.00771179 33.918 6.208 42.452
21 2 3 0.00771179 32.838 6.004 43.515
22 2 10 -0.314215 33.334 4.894 44.317
23 2 4 0.0441223 35.000 4.317 45.379
24 2 4 0.0441223 34.217 5.818 45.932
25 2 4 0.0441223 36.359 5.401 43.942
26 2 4 0.0441223 35.979 6.815 44.939
27 2 6 0.122302 35.114 7.792 43.108
28 2 4 0.0441223 34.198 5.175 42.096
29 2 4 0.0441223 33.576 6.775 41.598
30 2 4 0.0441223 31.854 5.821 43.091
31 2 4 0.0441223 32.800 6.880 44.216
32 2 6 0.122302 33.558 4.126 43.638
33 3 3 0.00771179 14.163 27.499 4.657
34 3 3 0.00771179 13.995 28.706 3.834
35 3 10 -0.314215 12.699 29.141 3.537
36 3 3 0.00771179 11.694 28.137 3.554
37 3 3 0.00771179 11.812 27.387 4.881
38 3 10 -0.314215 13.044 26.623 4.748
39 3 4 0.0441223 15.037 26.879 4.299
40 3 4 0.0441223 14.444 27.785 5.713
41 3 4 0.0441223 14.554 28.550 2.864
42 3 4 0.0441223 14.557 29.555 4.323
43 3 6 0.122302 12.411 30.071 3.893
44 3 4 0.0441223 11.952 27.388 2.753
45 3 4 0.0441223 10.696 28.506 3.359
46 3 4 0.0441223 10.945 26.768 5.099
47 3 4 0.0441223 11.999 28.102 5.726
48 3 6 0.122302 12.957 26.092 3.847
49 4 3 0.00771179 26.921 37.081 50.404
50 4 3 0.00771179 28.227 37.710 50.653
51 4 10 -0.314215 28.259 38.978 51.244
52 4 3 0.00771179 27.103 39.778 51.047
53 4 3 0.00771179 25.887 38.939 51.439
54 4 10 -0.314215 25.788 37.943 50.381
55 4 4 0.0441223 26.921 36.514 49.427
56 4 4 0.0441223 26.716 36.288 51.182
57 4 4 0.0441223 28.789 37.754 49.674
58 4 4 0.0441223 28.851 37.005 51.278
59 4 6 0.122302 28.713 39.063 52.172
60 4 4 0.0441223 27.005 39.962 49.939
61 4 4 0.0441223 27.138 40.738 51.544
62 4 4 0.0441223 24.982 39.529 51.558
63 4 4 0.0441223 26.093 38.354 52.375
64 4 6 0.122302 25.790 38.480 49.479
65 5 3 0.00771179 5.109 27.517 33.808
66 5 3 0.00771179 3.649 27.361 33.729
67 5 10 -0.314215 3.069 26.199 34.248
68 5 3 0.00771179 3.911 25.056 34.290
69 5 3 0.00771179 5.212 25.466 34.981
70 5 10 -0.314215 5.871 26.331 34.012
71 5 4 0.0441223 5.518 28.013 32.879
72 5 4 0.0441223 5.380 28.230 34.642
73 5 4 0.0441223 3.342 27.465 32.646
74 5 4 0.0441223 3.166 28.256 34.220
75 5 6 0.122302 2.413 26.304 35.044
76 5 4 0.0441223 4.193 24.806 33.228
77 5 4 0.0441223 3.451 24.182 34.729
78 5 4 0.0441223 5.820 24.617 35.281
79 5 4 0.0441223 5.001 26.123 35.866
80 5 6 0.122302 5.898 25.789 33.114
81 6 3 0.00771179 51.271 21.486 55.633
82 6 3 0.00771179 52.193 22.443 55.003
83 6 10 -0.314215 53.030 21.992 53.977
84 6 3 0.00771179 53.339 20.606 53.999
85 6 3 0.00771179 52.020 19.840 54.109
86 6 10 -0.314215 51.570 20.104 55.469
87 6 4 0.0441223 51.185 21.673 56.744
88 6 4 0.0441223 50.221 21.644 55.246
89 6 4 0.0441223 52.832 22.902 55.814
90 6 4 0.0441223 51.593 23.320 54.619
91 6 6 0.122302 52.906 22.410 53.037
92 6 4 0.0441223 53.895 20.399 54.957
93 6 4 0.0441223 53.956 20.276 53.175
94 6 4 0.0441223 52.123 18.781 53.890
95 6 4 0.0441223 51.238 20.298 53.447
96 6 6 0.122302 52.378 19.857 56.092
97 7 3 0.00771179 26.051 23.763 17.217
98 7 3 0.00771179 26.470 22.363 17.379
99 7 10 -0.314215 26.704 21.596 16.234
100 7 3 0.00771179 26.010 22.006 15.065
101 7 3 0.00771179 26.265 23.502 14.877
102 7 10 -0.314215 25.509 24.129 15.952
103 7 4 0.0441223 25.286 24.054 17.997
104 7 4 0.0441223 26.921 24.456 17.415
105 7 4 0.0441223 25.697 21.836 18.014
106 7 4 0.0441223 27.396 22.339 18.026
107 7 6 0.122302 27.666 21.239 16.083
108 7 4 0.0441223 24.908 21.907 15.275
109 7 4 0.0441223 26.238 21.421 14.185
110 7 4 0.0441223 25.985 23.861 13.890
111 7 4 0.0441223 27.339 23.752 15.089
112 7 6 0.122302 24.534 23.746 15.879
113 8 3 0.00771179 35.362 27.472 34.081
114 8 3 0.00771179 35.697 26.042 34.156
115 8 10 -0.314215 36.683 25.538 33.301
116 8 3 0.00771179 36.877 26.259 32.092
117 8 3 0.00771179 37.061 27.732 32.457
118 8 10 -0.314215 35.738 28.158 32.891
119 8 4 0.0441223 34.254 27.640 34.220
120 8 4 0.0441223 35.834 28.028 34.944
121 8 4 0.0441223 34.747 25.450 34.000
122 8 4 0.0441223 35.983 25.796 35.221
123 8 6 0.122302 37.540 25.148 33.734
124 8 4 0.0441223 35.914 26.205 31.510
125 8 4 0.0441223 37.669 25.871 31.467
126 8 4 0.0441223 37.455 28.327 31.637
127 8 4 0.0441223 37.716 27.839 33.363
128 8 6 0.122302 35.080 27.883 32.121
129 9 3 0.00771179 36.143 50.601 24.901
130 9 3 0.00771179 36.413 51.718 23.983
131 9 10 -0.314215 36.697 51.432 22.644
132 9 3 0.00771179 37.246 50.147 22.391
133 9 3 0.00771179 36.344 49.117 23.071
134 9 10 -0.314215 36.591 49.312 24.493
135 9 4 0.0441223 36.588 50.794 25.921
136 9 4 0.0441223 35.034 50.517 25.097
137 9 4 0.0441223 37.264 52.326 24.410
138 9 4 0.0441223 35.539 52.433 24.022
139 9 6 0.122302 36.038 51.788 21.927
140 9 4 0.0441223 38.235 50.091 22.929
141 9 4 0.0441223 37.421 49.937 21.345
142 9 4 0.0441223 36.534 48.099 22.739
143 9 4 0.0441223 35.262 49.376 22.922
144 9 6 0.122302 37.633 49.263 24.613
145 10 3 0.00771179 32.634 7.215 50.835
146 10 3 0.00771179 32.334 8.237 51.849
147 10 10 -0.314215 31.032 8.320 52.353
148 10 3 0.00771179 30.008 7.836 51.496
149 10 3 0.00771179 30.412 6.435 51.038
150 10 10 -0.314215 31.526 6.666 50.129
151 10 4 0.0441223 33.354 7.610 50.058
152 10 4 0.0441223 33.187 6.350 51.306
153 10 4 0.0441223 32.622 9.246 51.428
154 10 4 0.0441223 33.048 8.105 52.714
155 10 6 0.122302 30.896 8.136 53.364
156 10 4 0.0441223 30.015 8.476 50.568
157 10 4 0.0441223 29.016 7.877 51.923
158 10 4 0.0441223 29.594 5.883 50.581
159 10 4 0.0441223 30.845 5.847 51.891
160 10 6 0.122302 31.186 7.371 49.431
161 11 3 0.00771179 20.044 16.781 22.493
162 11 3 0.00771179 20.397 17.810 21.504
163 11 10 -0.314215 20.743 19.087 21.958
164 11 3 0.00771179 20.206 19.458 23.220
165 11 3 0.00771179 20.528 18.336 24.207
166 11 10 -0.314215 19.668 17.238 23.788
167 11 4 0.0441223 19.201 16.128 22.119
168 11 4 0.0441223 20.906 16.064 22.633
169 11 4 0.0441223 19.539 17.908 20.775
170 11 4 0.0441223 21.238 17.416 20.861
171 11 6 0.122302 21.705 19.422 21.763
172 11 4 0.0441223 19.084 19.467 23.119
173 11 4 0.0441223 20.519 20.434 23.565
174 11 4 0.0441223 20.378 18.626 25.244
175 11 4 0.0441223 21.576 17.963 24.057
176 11 6 0.122302 18.698 17.635 23.738
177 12 3 0.00771179 13.262 39.840 13.351
178 12 3 0.00771179 13.563 39.875 14.789
179 12 10 -0.314215 12.509 39.745 15.700
180 12 3 0.00771179 11.232 40.144 15.224
181 12 3 0.00771179 10.994 39.439 13.888
182 12 10 -0.314215 11.914 40.098 12.971
183 12 4 0.0441223 13.908 40.570 12.780
184 12 4 0.0441223 13.539 38.833 12.919
185 12 4 0.0441223 14.113 40.838 15.010
186 12 4 0.0441223 14.334 39.080 15.014
187 12 6 0.122302 12.517 38.920 16.328
188 12 4 0.0441223 11.291 41.244 14.984
189 12 4 0.0441223 10.429 39.999 15.933
190 12 4 0.0441223 9.958 39.483 13.562
191 12 4 0.0441223 11.340 38.372 13.936
192 12 6 0.122302 11.727 41.126 13.065
193 13 3 0.00771179 11.019 42.302 53.080
194 13 3 0.00771179 9.600 41.999 53.316
195 13 10 -0.314215 9.046 42.310 54.563
196 13 3 0.00771179 9.961 42.357 55.648
197 13 3 0.00771179 11.120 43.264 55.237
198 13 10 -0.314215 11.836 42.492 54.230
199 13 4 0.0441223 11.510 41.496 52.459
200 13 4 0.0441223 11.118 43.233 52.448
201 13 4 0.0441223 9.436 40.900 53.113
202 13 4 0.0441223 8.986 42.504 52.513
203 13 6 0.122302 8.283 43.010 54.588
204 13 4 0.0441223 10.403 41.326 55.761
205 13 4 0.0441223 9.515 42.635 56.593
206 13 4 0.0441223 11.747 43.561 56.074
207 13 4 0.0441223 10.742 44.173 54.696
208 13 6 0.122302 12.027 41.557 54.668
209 14 3 0.00771179 10.735 41.903 45.164
210 14 3 0.00771179 10.959 40.634 45.872
211 14 10 -0.314215 11.426 39.533 45.145
212 14 3 0.00771179 11.121 39.537 43.758
213 14 3 0.00771179 11.558 40.889 43.192
214 14 10 -0.314215 10.598 41.833 43.748
215 14 4 0.0441223 9.817 42.432 45.555
216 14 4 0.0441223 11.579 42.623 45.377
217 14 4 0.0441223 9.996 40.343 46.387
218 14 4 0.0441223 11.666 40.824 46.733
219 14 6 0.122302 12.354 39.149 45.400
220 14 4 0.0441223 9.999 39.511 43.660
221 14 4 0.0441223 11.525 38.696 43.213
222 14 4 0.0441223 11.594 40.904 42.106
223 14 4 0.0441223 12.551 41.195 43.617
224 14 6 0.122302 9.649 41.446 43.519
225 15 3 0.00771179 24.534 50.830 12.272
226 15 3 0.00771179 24.069 49.968 13.369
227 15 10 -0.314215 23.539 50.569 14.516
228 15 3 0.00771179 23.986 51.891 14.781
229 15 3 0.00771179 23.795 52.709 13.504
230 15 10 -0.314215 24.808 52.189 12.596
231 15 4 0.0441223 25.468 50.413 11.792
232 15 4 0.0441223 23.775 50.838 11.435
233 15 4 0.0441223 24.925 49.298 13.677
234 15 4 0.0441223 23.308 49.243 12.957
235 15 6 0.122302 22.546 50.376 14.744
236 15 4 0.0441223 25.099 51.842 14.952
237 15 4 0.0441223 23.533 52.345 15.651
238 15 4 0.0441223 23.875 53.780 13.668
239 15 4 0.0441223 22.812 52.464 13.019
240 15 6 0.122302 25.716 52.235 13.121
241 16 3 0.00771179 27.601 46.399 3.995
242 16 3 0.00771179 27.175 46.649 2.610
243 16 10 -0.314215 28.154 46.874 1.636
244 16 3 0.00771179 29.388 47.391 2.112
245 16 3 0.00771179 29.848 46.501 3.267
246 16 10 -0.314215 28.918 46.809 4.345
247 16 4 0.0441223 26.899 46.888 4.732
248 16 4 0.0441223 27.524 45.297 4.232
249 16 4 0.0441223 26.463 47.527 2.614
250 16 4 0.0441223 26.523 45.790 2.274
251 16 6 0.122302 28.223 46.192 0.858
252 16 4 0.0441223 29.177 48.400 2.568
253 16 4 0.0441223 30.140 47.520 1.347
254 16 4 0.0441223 30.888 46.660 3.539
255 16 4 0.0441223 29.673 45.418 3.028
256 16 6 0.122302 28.932 47.854 4.446
257 17 3 0.00771179 41.714 13.183 37.822
258 17 3 0.00771179 41.114 14.408 38.372
259 17 10 -0.314215 39.917 14.305 39.089
260 17 3 0.00771179 39.102 13.187 38.768
261 17 3 0.00771179 39.981 11.938 38.840
262 17 10 -0.314215 40.857 12.055 37.682
263 17 4 0.0441223 42.173 13.373 36.807
264 17 4 0.0441223 42.587 12.857 38.461
265 17 4 0.0441223 40.964 15.138 37.522
266 17 4 0.0441223 41.881 14.922 39.022
267 17 6 0.122302 39.931 14.580 40.088
268 17 4 0.0441223 38.800 13.289 37.688
269 17 4 0.0441223 38.202 13.110 39.362
270 17 4 0.0441223 39.408 11.015 38.852
271 17 4 0.0441223 40.663 11.983 39.731
272 17 6 0.122302 40.226 12.210 36.858
273 18 3 0.00771179 49.401 47.533 30.726
274 18 3 0.00771179 48.768 46.926 31.907
275 18 10 -0.314215 49.120 45.618 32.258
276 18 3 0.00771179 49.593 44.801 31.197
277 18 3 0.00771179 50.699 45.573 30.478
278 18 10 -0.314215 49.994 46.643 29.786
279 18 4 0.0441223 48.666 48.172 30.153
280 18 4 0.0441223 50.206 48.259 31.046
281 18 4 0.0441223 47.648 46.973 31.769
282 18 4 0.0441223 48.948 47.599 32.796
283 18 6 0.122302 49.582 45.475 33.176
284 18 4 0.0441223 48.755 44.699 30.451
285 18 4 0.0441223 49.893 43.809 31.502
286 18 4 0.0441223 51.290 44.949 29.812
287 18 4 0.0441223 51.368 46.091 31.216
288 18 6 0.122302 49.232 46.176 29.236
289 19 3 0.00771179 15.068 54.922 19.983
290 19 3 0.00771179 14.591 54.410 21.277
291 19 10 -0.314215 13.791 53.262 21.290
292 19 3 0.00771179 13.053 53.012 20.102
293 19 3 0.00771179 14.030 53.078 18.928
294 19 10 -0.314215 14.364 54.492 18.823
295 19 4 0.0441223 15.068 56.052 19.967
296 19 4 0.0441223 16.153 54.646 19.832
297 19 4 0.0441223 14.036 55.242 21.802
298 19 4 0.0441223 15.485 54.234 21.944
299 19 6 0.122302 14.163 52.424 21.773
300 19 4 0.0441223 12.343 53.875 19.959
301 19 4 0.0441223 12.473 52.101 20.124
302 19 4 0.0441223 13.621 52.665 18.010
303 19 4 0.0441223 14.996 52.566 19.186
304 19 6 0.122302 13.447 55.001 18.776
305 20 3 0.00771179 58.040 23.711 15.127
306 20 3 0.00771179 57.687 24.715 16.141
307 20 10 -0.314215 56.515 25.459 15.969
308 20 3 0.00771179 56.068 25.605 14.629
309 20 3 0.00771179 56.019 24.210 14.004
310 20 10 -0.314215 57.420 23.840 13.852
311 20 4 0.0441223 59.155 23.685 14.948
312 20 4 0.0441223 57.799 22.674 15.506
313 20 4 0.0441223 58.556 25.431 16.244
314 20 4 0.0441223 57.649 24.209 17.150
315 20 6 0.122302 55.770 25.352 16.682
316 20 4 0.0441223 56.868 26.165 14.067
317 20 4 0.0441223 55.141 26.151 14.527
318 20 4 0.0441223 55.464 24.181 13.070
319 20 4 0.0441223 55.596 23.464 14.729
320 20 6 0.122302 57.872 24.635 13.335
321 21 3 0.00771179 49.401 57.064 45.290
322 21 3 0.00771179 50.334 57.889 46.072
323 21 10 -0.314215 51.458 58.421 45.431
324 21 3 0.00771179 51.914 57.706 44.292
325 21 3 0.00771179 50.713 57.491 43.370
326 21 10 -0.314215 49.895 56.513 44.074
327 21 4 0.0441223 49.006 56.202 45.904
328 21 4 0.0441223 48.478 57.661 45.030
329 21 4 0.0441223 50.679 57.283 46.961
330 21 4 0.0441223 49.754 58.736 46.545
331 21 6 0.122302 51.534 59.453 45.373
332 21 4 0.0441223 52.221 56.679 44.640
333 21 4 0.0441223 52.760 58.157 43.794
334 21 4 0.0441223 50.996 57.173 42.370
335 21 4 0.0441223 50.082 58.418 43.317
336 21 6 0.122302 50.536 55.713 44.301
337 22 3 0.00771179 32.610 29.073 13.115
338 22 3 0.00771179 33.076 28.245 14.237
339 22 10 -0.314215 34.388 28.412 14.694
340 22 3 0.00771179 35.312 28.916 13.741
341 22 3 0.00771179 34.702 30.175 13.127
342 22 10 -0.314215 33.611 29.674 12.301
343 22 4 0.0441223 31.937 28.484 12.425
344 22 4 0.0441223 31.950 29.908 13.496
345 22 4 0.0441223 32.926 27.160 13.960
346 22 4 0.0441223 32.370 28.390 15.107
347 22 6 0.122302 34.519 28.744 15.667
348 22 4 0.0441223 35.376 28.165 12.904
349 22 4 0.0441223 36.309 29.070 14.129
350 22 4 0.0441223 35.422 30.770 12.570
351 22 4 0.0441223 34.208 30.804 13.916
352 22 6 0.122302 34.033 28.937 11.684
353 23 3 0.00771179 28.941 48.377 12.638
354 23 3 0.00771179 27.805 48.922 13.397
355 23 10 -0.314215 26.763 48.061 13.756
356 23 3 0.00771179 26.591 46.923 12.924
357 23 3 0.00771179 27.950 46.236 12.792
358 23 10 -0.314215 28.727 47.144 11.960
359 23 4 0.0441223 29.308 49.116 11.866
360 23 4 0.0441223 29.829 48.229 13.320
361 23 4 0.0441223 27.373 49.787 12.812
362 23 4 0.0441223 28.203 49.416 14.332
363 23 6 0.122302 26.593 47.908 14.767
364 23 4 0.0441223 26.334 47.296 11.892
365 23 4 0.0441223 25.804 46.254 13.244
366 23 4 0.0441223 27.882 45.231 12.383
367 23 4 0.0441223 28.482 46.215 13.781
368 23 6 0.122302 28.142 47.324 11.107
369 24 3 0.00771179 14.876 23.696 26.188
370 24 3 0.00771179 14.038 24.901 26.268
371 24 10 -0.314215 14.176 25.742 27.378
372 24 3 0.00771179 14.660 25.125 28.561
373 24 3 0.00771179 15.932 24.360 28.196
374 24 10 -0.314215 15.455 23.235 27.404
375 24 4 0.0441223 14.301 22.827 25.749
376 24 4 0.0441223 15.724 23.859 25.460
377 24 4 0.0441223 12.956 24.584 26.189
378 24 4 0.0441223 14.197 25.512 25.331
379 24 6 0.122302 14.505 26.710 27.208
380 24 4 0.0441223 13.908 24.343 28.865
381 24 4 0.0441223 14.793 25.803 29.393
382 24 4 0.0441223 16.511 24.057 29.065
383 24 4 0.0441223 16.571 24.962 27.496
384 24 6 0.122302 14.709 22.774 27.981
385 25 3 0.00771179 44.478 3.405 45.624
386 25 3 0.00771179 44.426 1.973 45.293
387 25 10 -0.314215 43.213 1.292 45.447
388 25 3 0.00771179 42.315 1.842 46.399
389 25 3 0.00771179 42.159 3.329 46.083
390 25 10 -0.314215 43.442 3.908 46.460
391 25 4 0.0441223 45.457 3.675 46.117
392 25 4 0.0441223 44.467 4.023 44.678
393 25 4 0.0441223 45.217 1.442 45.902
394 25 4 0.0441223 44.784 1.837 44.230
395 25 6 0.122302 42.777 0.891 44.596
396 25 4 0.0441223 42.820 1.793 47.406
397 25 4 0.0441223 41.371 1.320 46.472
398 25 4 0.0441223 41.316 3.787 46.593
399 25 4 0.0441223 42.077 3.494 44.975
400 25 6 0.122302 43.620 3.594 47.446
401 26 3 0.00771179 36.621 57.690 39.064
402 26 3 0.00771179 35.957 58.960 39.394
403 26 10 -0.314215 35.170 59.025 40.549
404 26 3 0.00771179 34.621 57.791 40.990
405 26 3 0.00771179 35.763 56.779 41.070
406 26 10 -0.314215 36.102 56.515 39.678
407 26 4 0.0441223 36.618 57.505 37.949
408 26 4 0.0441223 37.718 57.744 39.330
409 26 4 0.0441223 35.325 59.267 38.509
410 26 4 0.0441223 36.741 59.772 39.446
411 26 6 0.122302 35.468 59.677 41.297
412 26 4 0.0441223 33.936 57.418 40.176
413 26 4 0.0441223 34.048 57.863 41.903
414 26 4 0.0441223 35.500 55.882 41.624
415 26 4 0.0441223 36.682 57.250 41.512
416 26 6 0.122302 35.201 56.257 39.207
417 27 3 0.00771179 38.408 52.791 3.966
418 27 3 0.00771179 39.314 52.037 4.846
419 27 10 -0.314215 38.761 51.173 5.796
420 27 3 0.00771179 37.444 51.488 6.223
421 27 3 0.00771179 36.584 51.672 4.972
422 27 10 -0.314215 37.058 52.923 4.397
423 27 4 0.0441223 38.796 53.835 3.778
424 27 4 0.0441223 38.382 52.319 2.939
425 27 4 0.0441223 39.984 52.777 5.377
426 27 4 0.0441223 40.035 51.452 4.202
427 27 6 0.122302 38.976 50.162 5.708
428 27 4 0.0441223 37.483 52.499 6.719
429 27 4 0.0441223 37.026 50.784 6.929
430 27 4 0.0441223 35.518 51.674 5.184
431 27 4 0.0441223 36.825 50.887 4.206
432 27 6 0.122302 37.019 53.629 5.173
433 28 3 0.00771179 50.151 49.198 56.670
434 28 3 0.00771179 50.584 48.462 57.867
435 28 10 -0.314215 51.043 47.149 57.718
436 28 3 0.00771179 50.551 46.450 56.584
437 28 3 0.00771179 50.782 47.334 55.359
438 28 10 -0.314215 49.826 48.422 55.521
439 28 4 0.0441223 49.252 49.846 56.892
440 28 4 0.0441223 50.948 49.934 56.356
441 28 4 0.0441223 49.732 48.463 58.609
442 28 4 0.0441223 51.383 49.066 58.390
443 28 6 0.122302 52.029 46.953 57.974
444 28 4 0.0441223 49.433 46.368 56.698
445 28 4 0.0441223 50.949 45.451 56.471
446 28 4 0.0441223 50.666 46.800 54.420
447 28 4 0.0441223 51.792 47.821 55.405
448 28 6 0.122302 48.894 47.965 55.675
449 29 3 0.00771179 42.659 4.709 13.047
450 29 3 0.00771179 41.646 5.768 12.928
451 29 10 -0.314215 41.910 7.017 13.500
452 29 3 0.00771179 42.821 7.015 14.589
453 29 3 0.00771179 44.072 6.256 14.144
454 29 10 -0.314215 43.637 4.868 14.071
455 29 4 0.0441223 42.178 3.699 13.208
456 29 4 0.0441223 43.219 4.594 12.072
457 29 4 0.0441223 40.675 5.375 13.353
458 29 4 0.0441223 41.408 5.915 11.834
459 29 6 0.122302 41.971 7.833 12.864
460 29 4 0.0441223 42.363 6.396 15.411
461 29 4 0.0441223 43.037 7.996 14.989
462 29 4 0.0441223 44.919 6.404 14.809
463 29 4 0.0441223 44.352 6.532 13.093
464 29 6 0.122302 43.192 4.656 14.998
465 30 3 0.00771179 40.066 8.325 55.532
466 30 3 0.00771179 41.045 8.848 54.567
467 30 10 -0.314215 41.857 7.941 53.878
468 30 3 0.00771179 42.083 6.699 54.528
469 30 3 0.00771179 40.720 6.134 54.931
470 30 10 -0.314215 40.283 7.003 56.015
471 30 4 0.0441223 39.988 8.996 56.438
472 30 4 0.0441223 39.029 8.347 55.085
473 30 4 0.0441223 41.708 9.589 55.105
474 30 4 0.0441223 40.499 9.489 53.814
475 30 6 0.122302 41.760 7.898 52.846
476 30 4 0.0441223 42.623 6.916 55.492
477 30 4 0.0441223 42.682 6.003 53.958
478 30 4 0.0441223 40.761 5.085 55.213
479 30 4 0.0441223 39.969 6.286 54.111
480 30 6 0.122302 41.073 7.021 56.706
481 31 3 0.00771179 30.844 5.860 9.792
482 31 3 0.00771179 30.459 4.627 10.496
483 31 10 -0.314215 31.396 3.594 10.602
484 31 3 0.00771179 32.394 3.562 9.591
485 31 3 0.00771179 33.011 4.958 9.507
486 31 10 -0.314215 31.961 5.775 8.914
487 31 4 0.0441223 29.982 6.271 9.188
488 31 4 0.0441223 31.072 6.678 10.537
489 31 4 0.0441223 29.526 4.219 10.006
490 31 4 0.0441223 30.106 4.902 11.534
491 31 6 0.122302 31.711 3.327 11.553
492 31 4 0.0441223 31.871 3.397 8.607
493 31 4 0.0441223 33.127 2.778 9.717
494 31 4 0.0441223 33.940 4.980 8.943
495 31 4 0.0441223 33.171 5.385 10.533
496 31 6 0.122302 31.666 5.274 8.040
497 32 3 0.00771179 49.544 34.529 11.791
498 32 3 0.00771179 50.218 33.376 11.177
499 32 10 -0.314215 51.424 32.931 11.730
500 32 3 0.00771179 52.173 33.906 12.440
501 32 3 0.00771179 51.232 34.570 13.446
502 32 10 -0.314215 50.338 35.371 12.621
503 32 4 0.0441223 49.074 35.193 11.007
504 32 4 0.0441223 48.669 34.181 12.416
505 32 4 0.0441223 50.388 33.608 10.084
506 32 4 0.0441223 49.493 32.510 11.148
507 32 6 0.122302 51.446 31.972 12.125
508 32 4 0.0441223 52.456 34.713 11.706
509 32 4 0.0441223 53.081 33.528 12.889
510 32 4 0.0441223 51.756 35.153 14.199
511 32 4 0.0441223 50.573 33.806 13.938
512 32 6 0.122302 50.958 35.958 12.011
513 33 3 0.00771179 54.899 21.157 16.406
514 33 3 0.00771179 53.907 20.126 16.744
515 33 10 -0.314215 53.860 18.960 15.972
516 33 3 0.00771179 54.344 19.083 14.642
517 33 3 0.00771179 55.727 19.731 14.711
518 33 10 -0.314215 55.454 21.109 15.096
519 33 4 0.0441223 54.474 22.195 16.544
520 33 4 0.0441223 55.764 21.117 17.132
521 33 4 0.0441223 52.884 20.606 16.733
522 33 4 0.0441223 54.045 19.836 17.827
523 33 6 0.122302 54.070 18.062 16.446
524 33 4 0.0441223 53.684 19.825 14.111
525 33 4 0.0441223 54.333 18.160 14.080
526 33 4 0.0441223 56.283 19.648 13.781
527 33 4 0.0441223 56.325 19.302 15.559
528 33 6 0.122302 54.739 21.462 14.413
529 34 3 0.00771179 42.395 19.181 40.171
530 34 3 0.00771179 43.728 19.756 40.402
531 34 10 -0.314215 43.972 21.071 39.991
532 34 3 0.00771179 43.162 21.543 38.925
533 34 3 0.00771179 41.705 21.266 39.294
534 34 10 -0.314215 41.582 19.818 39.190
535 34 4 0.0441223 42.465 18.091 39.880
536 34 4 0.0441223 41.803 19.171 41.133
537 34 4 0.0441223 44.492 19.079 39.917
538 34 4 0.0441223 43.969 19.671 41.503
539 34 6 0.122302 44.203 21.768 40.724
540 34 4 0.0441223 43.380 20.900 38.026
541 34 4 0.0441223 43.345 22.573 38.652
542 34 4 0.0441223 40.997 21.801 38.666
543 34 4 0.0441223 41.517 21.500 40.376
544 34 6 0.122302 41.943 19.566 38.237
545 35 3 0.00771179 21.843 2.453 29.064
546 35 3 0.00771179 22.692 1.449 28.407
547 35 10 -0.314215 24.079 1.627 28.425
548 35 3 0.00771179 24.526 2.969 28.557
549 35 3 0.00771179 23.802 3.581 29.757
550 35 10 -0.314215 22.426 3.730 29.303
551 35 4 0.0441223 20.893 2.631 28.478
552 35 4 0.0441223 21.481 2.064 30.061
553 35 4 0.0441223 22.355 1.352 27.332
554 35 4 0.0441223 22.453 0.435 28.845
555 35 6 0.122302 24.649 0.914 28.917
556 35 4 0.0441223 24.159 3.536 27.655
557 35 4 0.0441223 25.600 3.076 28.607
558 35 4 0.0441223 24.246 4.515 30.091
559 35 4 0.0441223 23.753 2.850 30.607
560 35 6 0.122302 22.478 4.253 28.394
561 36 3 0.00771179 9.535 16.800 6.932
562 36 3 0.00771179 9.010 18.006 6.274
563 36 10 -0.314215 8.433 17.880 5.006
564 36 3 0.00771179 8.880 16.776 4.232
565 36 3 0.00771179 8.757 15.524 5.100
566 36 10 -0.314215 9.807 15.680 6.098
567 36 4 0.0441223 10.486 17.026 7.499
568 36 4 0.0441223 8.816 16.449 7.731
569 36 4 0.0441223 9.844 18.766 6.216
570 36 4 0.0441223 8.262 18.495 6.964
571 36 6 0.122302 7.429 18.119 4.910
572 36 4 0.0441223 9.983 16.917 4.050
573 36 4 0.0441223 8.391 16.680 3.273
574 36 4 0.0441223 8.841 14.601 4.531
575 36 4 0.0441223 7.796 15.535 5.681
576 36 6 0.122302 10.689 15.865 5.560
577 37 3 0.00771179 13.872 54.871 6.634
578 37 3 0.00771179 15.257 54.380 6.697
579 37 10 -0.314215 16.302 55.309 6.648
580 37 3 0.00771179 16.004 56.536 5.998
581 37 3 0.00771179 14.713 57.081 6.608
582 37 10 -0.314215 13.680 56.182 6.112
583 37 4 0.0441223 13.220 54.178 6.025
584 37 4 0.0441223 13.406 54.854 7.662
585 37 4 0.0441223 15.402 53.630 5.864
586 37 4 0.0441223 15.373 53.755 7.631
587 37 6 0.122302 16.922 55.377 7.476
588 37 4 0.0441223 15.761 56.298 4.924
589 37 4 0.0441223 16.816 57.250 6.007
590 37 4 0.0441223 14.530 58.123 6.357
591 37 4 0.0441223 14.711 56.945 7.722
592 37 6 0.122302 13.800 56.152 5.070
593 38 3 0.00771179 52.915 45.158 26.896
594 38 3 0.00771179 52.690 44.660 25.531
595 38 10 -0.314215 53.791 44.510 24.681
596 38 3 0.00771179 54.907 45.339 24.967
597 38 3 0.00771179 55.237 45.174 26.451
598 38 10 -0.314215 54.140 45.844 27.135
599 38 4 0.0441223 52.083 45.850 27.221
600 38 4 0.0441223 52.866 44.304 27.634
601 38 4 0.0441223 51.937 45.337 25.029
602 38 4 0.0441223 52.146 43.672 25.595
603 38 6 0.122302 54.014 43.553 24.350
604 38 4 0.0441223 54.573 46.408 24.844
605 38 4 0.0441223 55.757 45.177 24.320
606 38 4 0.0441223 56.214 45.571 26.716
607 38 4 0.0441223 55.162 44.097 26.757
608 38 6 0.122302 54.079 46.802 26.711
609 39 3 0.00771179 23.143 32.977 42.923
610 39 3 0.00771179 22.174 31.885 42.751
611 39 10 -0.314215 21.657 31.260 43.891
612 39 3 0.00771179 22.477 31.317 45.049
613 39 3 0.00771179 22.874 32.778 45.263
614 39 10 -0.314215 23.807 33.054 44.180
615 39 4 0.0441223 23.947 32.939 42.130
616 39 4 0.0441223 22.639 33.974 42.755
617 39 4 0.0441223 22.645 31.097 42.091
618 39 4 0.0441223 21.313 32.264 42.125
619 39 6 0.122302 20.637 31.335 44.058
620 39 4 0.0441223 23.433 30.770 44.812
621 39 4 0.0441223 22.039 30.860 45.925
622 39 4 0.0441223 23.294 32.965 46.248
623 39 4 0.0441223 22.000 33.458 45.080
624 39 6 0.122302 24.533 32.298 44.225
625 40 3 0.00771179 37.150 49.919 44.763
626 40 3 0.00771179 37.837 49.322 45.918
627 40 10 -0.314215 38.465 50.170 46.837
628 40 3 0.00771179 38.877 51.431 46.330
629 40 3 0.00771179 37.677 52.059 45.622
630 40 10 -0.314215 37.513 51.253 44.420
631 40 4 0.0441223 37.293 49.292 43.835
632 40 4 0.0441223 36.033 49.914 44.930
633 40 4 0.0441223 38.599 48.583 45.531
634 40 4 0.0441223 37.103 48.668 46.474
635 40 6 0.122302 38.108 50.171 47.811
636 40 4 0.0441223 39.642 51.237 45.526
637 40 4 0.0441223 39.325 52.081 47.069
638 40 4 0.0441223 37.811 53.117 45.414
639 40 4 0.0441223 36.737 51.898 46.215
640 40 6 0.122302 38.453 51.238 43.953
641 41 3 0.00771179 42.898 54.516 33.887
642 41 3 0.00771179 43.209 53.109 34.180
643 41 10 -0.314215 44.356 52.816 34.926
644 41 3 0.00771179 45.395 53.782 34.863
645 41 3 0.00771179 44.778 55.145 35.178
646 41 10 -0.314215 43.969 55.448 34.004
647 41 4 0.0441223 42.475 54.633 32.846
648 41 4 0.0441223 42.070 54.881 34.563
649 41 4 0.0441223 43.264 52.550 33.199
650 41 4 0.0441223 42.316 52.644 34.693
651 41 6 0.122302 44.226 52.355 35.845
652 41 4 0.0441223 45.737 53.840 33.791
653 41 4 0.0441223 46.253 53.550 35.477
654 41 4 0.0441223 45.520 55.909 35.395
655 41 4 0.0441223 44.046 55.065 36.026
656 41 6 0.122302 44.607 55.335 33.179
657 42 3 0.00771179 36.345 8.453 27.413
658 42 3 0.00771179 36.005 7.358 26.493
659 42 10 -0.314215 35.682 7.670 25.168
660 42 3 0.00771179 35.166 8.976 24.952
661 42 3 0.00771179 36.126 9.967 25.610
662 42 10 -0.314215 35.925 9.761 27.038
663 42 4 0.0441223 35.931 8.261 28.447
664 42 4 0.0441223 37.463 8.498 27.569
665 42 4 0.0441223 35.150 6.772 26.944
666 42 4 0.0441223 36.856 6.614 26.491
667 42 6 0.122302 36.302 7.303 24.423
668 42 4 0.0441223 34.200 9.056 25.526
669 42 4 0.0441223 34.960 9.205 23.916
670 42 4 0.0441223 35.958 10.994 25.298
671 42 4 0.0441223 37.193 9.674 25.418
672 42 6 0.122302 34.890 9.842 27.197
673 43 3 0.00771179 17.260 38.135 20.695
674 43 3 0.00771179 18.215 39.167 21.128
675 43 10 -0.314215 17.847 40.512 21.013
676 43 3 0.00771179 16.880 40.803 20.015
677 43 3 0.00771179 15.702 39.850 20.220
678 43 10 -0.314215 16.222 38.551 19.814
679 43 4 0.0441223 17.791 37.274 20.192
680 43 4 0.0441223 16.762 37.665 21.593
681 43 4 0.0441223 19.183 39.008 20.567
682 43 4 0.0441223 18.502 38.962 22.202
683 43 6 0.122302 17.772 41.065 21.887
684 43 4 0.0441223 17.330 40.525 19.020
685 43 4 0.0441223 16.586 41.842 19.972
686 43 4 0.0441223 14.813 40.147 19.670
687 43 4 0.0441223 15.464 39.742 21.312
688 43 6 0.122302 16.627 38.691 18.856
689 44 3 0.00771179 53.905 51.194 47.460
690 44 3 0.00771179 53.092 50.553 48.504
691 44 10 -0.314215 53.169 51.044 49.812
692 44 3 0.00771179 54.379 51.706 50.150
693 44 3 0.00771179 54.648 52.756 49.072
694 44 10 -0.314215 55.012 51.975 47.898
695 44 4 0.0441223 54.310 50.431 46.732
696 44 4 0.0441223 53.259 51.867 46.823
697 44 4 0.0441223 53.342 49.451 48.518
698 44 4 0.0441223 52.011 50.568 48.177
699 44 6 0.122302 52.307 51.443 50.226
700 44 4 0.0441223 55.212 50.953 50.060
701 44 4 0.0441223 54.399 52.109 51.153
702 44 4 0.0441223 55.409 53.477 49.360
703 44 4 0.0441223 53.700 53.288 48.789
704 44 6 0.122302 55.779 51.329 48.209
705 45 3 0.00771179 9.276 56.667 46.491
706 45 3 0.00771179 9.305 55.200 46.591
707 45 10 -0.314215 10.246 54.603 47.436
708 45 3 0.00771179 11.420 55.362 47.684
709 45 3 0.00771179 10.983 56.759 48.125
710 45 10 -0.314215 10.445 57.362 46.913
711 45 4 0.0441223 9.061 57.000 45.434
712 45 4 0.0441223 8.412 57.081 47.091
713 45 4 0.0441223 9.437 54.779 45.550
714 45 4 0.0441223 8.275 54.840 46.886
715 45 6 0.122302 9.890 54.052 48.238
716 45 4 0.0441223 11.945 55.502 46.696
717 45 4 0.0441223 12.114 54.896 48.369
718 45 4 0.0441223 11.789 57.337 48.569
719 45 4 0.0441223 10.114 56.698 48.834