4400
 Atoms. Timestep: 20000
C 20.1754 47.7667 50.921
C 21.0517 46.4581 50.5575
N 22.3821 46.6437 51.2588
C 23.0856 47.8808 51.0698
C 22.2106 49.028 51.5919
N 20.9888 49.0327 50.7555
H 19.2701 47.888 50.332
H 19.9099 47.6561 51.9615
H 21.1874 46.3787 49.5308
H 20.5484 45.4799 50.791
H 22.3383 46.3253 52.2353
H 23.3681 48.0718 50.015
H 24.0056 47.8789 51.6829
H 22.9309 49.8969 51.492
H 21.9905 48.8353 52.6409
H 21.1665 49.0934 49.7595
C 35.4531 52.4285 43.4524
C 35.1319 52.2348 45.0166
N 33.7132 52.2719 45.3851
C 33.1145 53.4062 44.6819
C 33.3437 6.50541 43.1232
N 34.7858 6.5705 42.8447
H 36.4979 52.5335 43.4155
H 35.1406 51.4525 43.0261
H 35.6715 52.9729 45.5522
H 35.4311 51.2089 45.2624
H 33.3196 51.4019 45.0751
H 33.5847 7.30495 45.2275
H 32.007 53.4648 44.8461
H 32.7854 7.42795 42.7551
H 32.918 52.7092 42.6233
H 35.1669 7.42551 43.2931
C 24.855 42.5603 43.224
C 26.3214 43.0092 43.7193
N 26.9182 42.0926 44.6847
C 26.0082 41.8547 45.8375
C 24.6104 41.4396 45.3742
N 24.1008 42.4577 44.4852
H 24.3967 43.2515 42.5168
H 24.8858 41.5653 42.7395
H 26.2504 44.0038 44.181
H 26.9838 43.0486 42.7607
H 26.9655 41.161 44.2287
H 25.9339 42.7499 46.4574
H 26.3136 41.0442 46.5484
H 23.9794 41.3373 46.2712
H 24.6862 40.5472 44.8431
H 24.1599 43.3553 44.9784
C 27.6722 32.1791 43.2163
C 28.9378 32.6959 43.9539
N 29.7823 33.5812 43.1952
C 30.0745 32.9226 41.9145
C 28.8965 32.3163 41.0807
N 27.9593 31.4939 41.9578
H 27.2439 31.4199 43.8728
H 26.9523 33.0185 42.9727
H 29.5401 31.7996 44.2901
H 28.5709 33.1382 44.8592
H 29.3309 34.4549 43.0394
H 30.7092 32.0329 42.1632
H 30.771 33.6119 41.318
H 29.2839 31.6981 40.3212
H 28.3737 33.1314 40.5674
H 28.4134 30.5433 42.1737
C 18.3099 33.2673 29.977
C 18.8387 32.6302 28.6028
N 18.1564 31.3583 28.237
C 18.1575 30.4452 29.3353
C 17.4992 31.0003 30.5339
N 18.2802 32.1796 30.9521
H 18.9996 34.1054 30.2776
H 17.3463 33.7655 29.7967
H 19.8459 32.393 28.9994
H 18.9763 33.3759 27.8199
H 17.175 31.6495 28.0427
H 19.1948 30.3012 29.6243
H 17.6314 29.5562 29.0705
H 17.5245 30.2666 31.3305
H 16.4285 31.1407 30.4392
H 19.3358 32.009 31.0587
C 34.2165 18.7463 53.2973
C 35.6375 19.3701 53.0339
N 36.6607 18.6595 6.85406
C 36.3033 18.488 8.28784
C 34.7739 18.0829 8.54462
N 33.888 18.8841 7.69739
H 33.5004 19.454 52.7465
H 34.1096 17.7201 52.9569
H 35.6503 20.4395 53.2744
H 35.8906 19.2704 52.002
H 36.7597 17.711 53.4772
H 36.3893 19.4645 8.75695
H 37.0271 17.9001 8.85259
H 34.5021 18.214 9.59976
H 34.6502 17.0577 8.27712
H 33.9922 19.8864 8.04494
C 30.275 33.5562 11.4508
C 28.7888 33.4454 11.0406
N 28.4967 33.8834 9.63314
C 29.0944 35.2139 9.35243
C 30.5593 35.3006 9.70375
N 30.7894 34.9652 11.1123
H 30.4846 33.3092 12.4806
H 30.7728 32.8196 10.8113
H 28.3388 34.1407 11.8101
H 28.4751 32.372 11.1862
H 28.7983 33.1711 8.99269
H 28.4126 35.9412 9.91032
H 28.9274 35.4219 8.28191
H 30.9072 36.2816 9.49926
H 31.0517 34.6119 9.05153
H 30.2083 35.5903 11.7237
C 33.794 25.221 36.2094
C 33.186 25.0781 37.6677
N 34.0802 24.2677 38.4382
C 34.2055 22.9132 37.8522
C 34.8182 22.9616 36.4293
N 33.9592 23.9174 35.5765
H 33.2747 25.8899 35.4854
H 34.7527 25.6629 36.4037
H 32.2219 24.5801 37.4499
H 33.1232 26.0459 38.2032
H 34.9886 24.6537 38.5534
H 33.2218 22.477 37.8198
H 34.8166 22.2658 38.4495
H 34.7802 21.9255 35.9204
H 35.8475 23.2894 36.4753
H 33.0255 23.4718 35.447
C 53.4203 33.8968 10.747
C 6.52811 35.0547 11.7482
N 53.066 36.3548 11.2659
C 6.58869 36.728 9.93942
C 53.3867 35.5775 8.92574
N 6.93494 34.3215 9.41278
H 6.93028 33.0163 11.1215
H 52.3794 33.5503 10.664
H 7.60317 35.1796 11.9248
H 53.0659 34.8821 12.7007
H 52.0721 36.2758 11.2693
H 7.60083 36.8634 10.0907
H 53.1193 37.6278 9.56032
H 6.81225 35.8355 7.94632
H 52.299 35.4506 8.82599
H 7.94611 34.4949 9.56208
C 33.3552 14.5851 11.1027
C 32.6107 14.3787 9.81689
N 33.1871 13.2802 9.0039
C 34.6422 13.3769 8.76484
C 35.397 13.5218 10.0761
N 34.8428 14.7128 10.8038
H 32.9788 15.5217 11.6454
H 33.2061 13.727 11.7605
H 32.6273 15.3216 9.22643
H 31.5782 14.1719 10.0736
H 33.0951 12.3556 9.45327
H 34.8422 14.2021 8.05573
H 35.0641 12.5116 8.24726
H 36.5179 13.6979 9.92742
H 35.2253 12.4975 10.5181
H 35.0026 15.5542 10.2966
C 24.8395 17.0483 19.6099
C 26.209 17.45 20.2384
N 27.2884 17.1078 19.2677
C 27.364 15.5939 19.1853
C 26.0115 15.023 18.7015
N 24.7959 15.5639 19.4407
H 23.9467 17.4853 20.0756
H 24.9234 17.4469 18.5709
H 26.2881 16.9295 21.243
H 26.1881 18.5614 20.3826
H 26.959 17.4513 18.4187
H 27.6321 15.2079 20.1997
H 28.1226 15.2121 18.5187
H 26.0395 13.9115 18.7395
H 25.8904 15.237 17.6299
H 24.8013 15.0479 20.2933
C 18.6083 34.4631 8.71341
C 19.3743 35.4759 9.67093
N 19.74 36.7452 8.9846
C 20.3808 36.4791 7.62636
C 19.4682 35.6288 6.73373
N 19.1387 34.321 7.34622
H 18.5027 33.5377 9.26298
H 17.5881 34.8587 8.65036
H 20.2798 34.953 9.97455
H 18.7886 35.6932 10.5625
H 18.9129 37.2886 8.71623
H 21.3365 35.9488 7.75303
H 20.6415 37.4058 7.03905
H 19.8706 35.3132 52.7802
H 18.5284 36.2501 53.6216
H 20.0361 33.813 7.48726
C 13.0132 38.5973 45.7924
C 11.7154 39.0878 45.0244
N 10.9654 37.9694 44.5016
C 11.8168 37.1612 43.6085
C 13.1128 36.6994 44.2871
N 13.8178 37.7855 44.8345
H 13.5473 39.4937 46.1409
H 12.6749 38.0082 46.693
H 11.9438 39.791 44.2617
H 11.0989 39.6085 45.7794
H 10.8363 37.4423 45.367
H 12.0162 37.6687 42.6293
H 11.2552 36.3369 43.3359
H 13.7316 36.2325 43.524
H 12.9216 36.0092 45.0809
H 14.1429 38.446 44.0924
C 25.746 37.5794 35.8203
C 25.9177 39.0278 35.2251
N 25.5127 40.1012 36.1184
C 24.2089 39.8324 36.7973
C 24.2972 38.4906 37.4987
N 24.4139 37.4464 36.4585
H 25.8239 36.8153 35.0222
H 26.5817 37.4475 36.5391
H 25.3876 39.0536 34.3496
H 26.8603 39.1756 34.8418
H 26.1242 40.0406 36.92
H 23.4419 39.8053 36.0213
H 23.984 40.6276 37.4999
H 23.3204 38.3018 37.9637
H 25.1258 38.4043 38.2569
H 23.7956 37.7504 35.6809
C 26.1019 46.1756 18.041
C 24.8329 46.7919 18.7321
N 24.2596 45.8453 19.7193
C 23.9681 44.4659 19.3062
C 25.1471 43.8837 18.3729
N 25.6918 44.8311 17.4112
H 26.2658 46.8762 17.1774
H 26.9993 45.9695 18.6872
H 24.1153 46.8353 17.9847
H 25.0345 47.8188 19.1634
H 24.8504 45.8568 20.4862
H 23.0402 44.4212 18.8274
H 23.9661 43.7811 20.1307
H 24.7416 42.9894 17.905
H 25.9396 43.6079 19.0091
H 25.0593 44.9625 16.6648
C 32.9698 43.7058 49.8921
C 31.6083 44.3838 50.2197
N 30.7554 43.5783 51.1704
C 30.6045 42.2105 50.6569
C 32.0307 41.5818 50.5669
N 32.724 42.3056 49.532
H 33.5098 44.178 49.0733
H 33.6519 43.5989 50.7546
H 31.0803 44.4768 49.274
H 31.7758 45.4065 50.6149
H 31.2403 43.5172 52.1065
H 30.0995 42.1525 49.6738
H 30.0389 41.6222 51.3418
H 31.8963 40.5114 50.2717
H 32.5243 41.3873 51.5148
H 32.2599 42.2522 48.6002
C 35.5954 15.7269 43.216
C 36.5788 15.2962 44.3857
N 36.8357 16.4392 45.2875
C 37.4059 17.5643 44.5052
C 36.4495 17.9951 43.3226
N 36.1816 16.9027 42.4881
H 35.3925 14.8644 42.5955
H 34.7047 16.007 43.8225
H 37.5318 14.9178 43.9945
H 36.1076 14.491 45.002
H 36.0398 16.8034 45.7615
H 38.4812 17.2268 44.2123
H 37.5382 18.4142 45.1245
H 36.8423 18.8196 42.7553
H 35.4995 18.4058 43.7942
H 37.0869 16.6528 42.1062
C 42.5364 47.3944 47.5767
C 42.2897 45.8181 47.8421
N 40.9129 45.4189 47.522
C 39.8153 46.2072 48.1623
C 40.0469 47.6783 47.9178
N 41.4739 48.0046 48.2866
H 43.4253 47.8703 47.9163
H 42.4179 47.5956 46.497
H 42.5979 45.4415 48.8264
H 42.8277 45.1401 47.0808
H 40.8032 45.5328 46.507
H 39.8114 45.9835 49.241
H 38.8048 46.0104 47.7447
H 39.2566 48.2511 48.3523
H 39.9057 47.9145 46.84
H 41.5859 47.8908 49.3025
C 22.0603 48.6028 17.3784
C 21.3909 49.8929 16.882
N 20.685 50.4027 18.0594
C 19.743 49.4163 18.7115
C 20.2312 48.0174 19.0607
N 21.0283 47.6302 17.923
H 22.6582 48.0985 16.5676
H 22.8299 48.823 18.1792
H 20.7269 49.7611 15.9938
H 22.2013 50.6415 16.6122
H 21.4371 50.7378 18.7342
H 18.8146 49.4063 18.1036
H 19.3723 49.7673 19.6719
H 19.4858 47.2908 19.3399
H 20.8967 48.0676 19.9655
H 20.3724 47.4249 17.1621
C 38.6971 26.348 24.9991
C 38.4904 26.9185 23.5825
N 38.4614 28.3871 23.5705
C 37.5273 28.9918 24.4951
C 37.9053 28.5378 25.9572
N 37.8482 27.0305 25.9744
H 38.4678 25.2816 24.9148
H 39.7385 26.5614 25.2679
H 37.5217 26.5036 23.2559
H 39.2399 26.4945 22.8746
H 39.4307 28.7353 23.6893
H 36.4977 28.6148 24.2183
H 37.5663 30.0706 24.4797
H 37.1878 28.9025 26.6487
H 38.9502 28.7929 26.2172
H 36.865 26.7719 25.8342
C 45.9328 10.8525 49.7158
C 44.4518 10.8488 50.2955
N 44.4105 11.5181 51.641
C 45.3817 10.9865 52.5887
C 46.8146 11.1509 51.9922
N 46.8758 10.3455 50.7351
H 46.0856 10.3132 48.7746
H 46.1255 11.8493 49.3688
H 44.1708 9.80423 50.4547
H 43.7576 11.335 49.6187
H 44.6338 12.5222 51.4863
H 45.1948 9.91519 52.8403
H 45.3701 11.5943 6.51115
H 47.5779 10.8304 52.8142
H 46.9856 12.2183 51.8535
H 46.6461 9.36132 50.9641
C 33.9052 33.2866 13.1896
C 34.07 32.4882 14.5059
N 35.1672 31.5676 14.3812
C 34.9502 30.512 13.3586
C 34.573 31.0679 11.9622
N 33.6382 32.3252 12.0625
H 33.1054 34.0463 13.2051
H 34.8515 33.783 12.9636
H 33.2291 31.9052 14.8892
H 34.412 33.1365 15.3211
H 36.0782 32.0734 14.1788
H 34.1732 29.8045 13.7889
H 35.8274 29.8655 13.2594
H 34.1165 30.3059 11.315
H 35.4818 31.3455 11.5517
H 32.6516 32.0013 12.139
C 21.4367 36.2215 13.3468
C 20.024 36.3313 14.0395
N 19.1922 37.3002 13.2038
C 19.8313 38.5965 13.0139
C 21.2118 38.4167 12.3289
N 22.1129 37.5516 13.1459
H 21.9587 35.5427 13.9866
H 21.3252 35.7066 12.3701
H 20.1012 36.7984 15.0664
H 19.4848 35.3811 14.1186
H 19.0767 36.7701 12.3068
H 20.0346 39.1319 13.9064
H 19.2189 39.1545 12.3363
H 21.6528 39.3985 12.1956
H 20.9956 37.9593 11.327
H 22.3116 37.9244 14.049
C 20.4409 22.6797 25.9381
C 20.1328 21.1835 26.2581
N 20.4197 20.3079 25.1698
C 19.7376 20.7183 23.9275
C 19.8598 22.301 23.6533
N 19.6346 23.1047 24.8267
H 20.1856 23.3192 26.8093
H 21.5424 22.8411 25.8522
H 19.2182 20.9855 26.7188
H 20.8273 21.0248 27.0482
H 21.3722 20.3345 24.9007
H 18.7034 20.4058 23.9287
H 20.1969 20.2196 23.0727
H 19.1697 22.5063 22.8463
H 20.9169 22.4534 23.2358
H 18.6924 23.193 25.1768
C 37.2451 47.5256 43.548
C 36.9813 46.9272 42.1289
N 36.4739 45.6097 42.1894
C 37.4248 44.748 42.8087
C 37.7139 45.1794 44.2688
N 38.1268 46.6344 44.3452
H 37.7164 48.464 43.4372
H 36.2805 47.6173 44.0994
H 37.8487 47.0195 41.5365
H 36.3014 47.6131 41.6102
H 35.7462 45.6041 42.8924
H 38.3535 44.8106 42.2726
H 37.1449 43.6971 42.87
H 38.5371 44.528 44.5766
H 36.7628 45.0171 44.8271
H 39.0118 46.7621 43.86
C 38.68 49.3403 37.809
C 37.793 48.1627 37.3283
N 36.38 48.5548 37.6117
C 36.1432 48.8656 38.9699
C 37.0397 50.0538 39.3984
N 38.4319 49.6892 39.216
H 39.6894 49.0194 37.6169
H 38.4361 50.2664 37.1727
H 38.0283 47.2208 37.897
H 38.0139 48.1274 36.3084
H 36.0655 49.2853 36.9216
H 36.4515 47.9355 39.5301
H 35.0523 49.029 39.1139
H 36.8698 50.2345 40.4606
H 36.6908 50.9927 38.8134
H 38.7284 48.9728 39.9392
C 29.0121 8.74623 52.0824
C 28.5665 8.12293 53.3935
N 29.5522 7.12776 6.8219
C 29.6641 53.0301 52.8697
C 30.1565 6.65101 51.5501
N 29.2247 7.66814 51.0379
H 28.3211 9.49232 51.7582
H 29.9768 9.30218 52.2209
H 27.6343 7.56799 53.2566
H 28.4445 8.79864 7.22866
H 30.3552 7.6409 7.1504
H 28.7051 52.5427 52.7653
H 30.4331 52.2886 53.2077
H 30.3472 52.9283 50.7832
H 31.0639 7.15457 51.7211
H 28.3807 7.30677 50.6614
C 42.5633 42.0068 11.9239
C 41.1925 42.2544 12.572
N 40.1111 42.2293 11.5146
C 40.3106 43.1967 10.4131
C 41.6478 42.7889 9.7181
N 42.7393 42.8878 10.7196
H 43.341 42.0476 12.6635
H 42.6023 40.9305 11.7064
H 41.2923 43.1629 13.1146
H 41.0026 41.5597 13.4114
H 40.0659 41.2654 11.1106
H 40.3659 44.257 10.7586
H 39.4229 43.156 9.77839
H 41.938 43.4738 8.89724
H 41.4491 41.7566 9.23545
H 42.8235 43.8191 11.0378
C 40.5296 19.6631 18.8686
C 39.2654 19.7423 17.9275
N 37.9855 19.9073 18.6431
C 37.8598 18.905 19.7063
C 39.0364 19.0362 20.6695
N 40.2777 18.7225 19.936
H 41.3966 19.3707 18.2189
H 40.7289 20.6748 19.2393
H 39.2439 18.7958 17.3368
H 39.3354 20.5137 17.1722
H 38.1054 20.8387 19.0463
H 37.7561 17.8895 19.3349
H 36.9439 19.158 20.214
H 38.8967 18.278 21.4092
H 39.1184 20.0353 21.1374
H 40.1114 17.8146 19.5012
C 43.5587 12.4748 46.8559
C 43.0535 12.8035 45.3814
N 41.5953 12.651 45.3507
C 41.1179 11.3303 45.7422
C 41.6184 11.0364 47.2548
N 43.1869 11.1313 47.1828
H 44.6332 12.5793 46.9522
H 43.073 13.1684 47.6068
H 43.6955 12.2147 44.6968
H 43.1843 13.8812 45.219
H 41.1907 13.4402 45.9077
H 41.5034 10.5708 45.1022
H 39.9985 11.2117 45.7085
H 41.2175 10.1068 47.6207
H 41.156 11.7092 47.9603
H 43.5149 10.4436 46.5336
C 25.7498 27.517 9.93709
C 26.5034 26.6961 11.016
N 26.752 27.4101 12.31
C 27.4262 28.6754 12.0028
C 26.6009 29.5429 11.0328
N 26.4164 28.8485 9.75727
H 25.8113 27.0761 8.94718
H 24.7291 27.6113 10.2515
H 27.5244 26.6024 10.5351
H 25.8874 25.7996 11.1108
H 25.8581 27.7225 12.7565
H 28.3708 28.5632 11.5842
H 27.5681 29.1216 12.9793
H 27.0583 30.4757 10.8725
H 25.6568 29.7986 11.4626
H 27.3604 28.7262 9.44858
C 42.7105 31.5096 17.1693
C 42.7851 29.977 17.3405
N 43.0484 29.2157 16.1098
C 42.2504 29.69 14.9277
C 42.2474 31.2572 14.8303
N 41.8948 31.9084 16.0967
H 42.4361 32.0504 18.0572
H 43.7911 31.8392 16.9988
H 41.8285 29.6997 17.7846
H 43.6344 29.8162 18.0193
H 44.0577 29.2646 15.8369
H 41.2104 29.2812 15.0161
H 42.5676 29.3188 13.9568
H 41.5271 31.6445 14.0311
H 43.2589 31.5837 14.5314
H 40.8737 31.6792 16.2344
C 41.9139 28.8725 23.1903
C 43.4142 29.2194 23.1902
N 44.1655 28.5338 24.2764
C 43.4973 28.7764 25.5614
C 42.0588 28.3313 25.5386
N 41.2231 28.9909 24.4739
H 41.5317 29.5929 22.4526
H 41.7066 27.9004 22.7572
H 43.5549 30.3738 23.2269
H 43.7761 28.9794 22.1857
H 44.2452 27.5251 24.0741
H 43.5032 29.9067 25.8185
H 44.0583 28.208 26.2599
H 41.6425 28.5631 26.5275
H 41.834 27.2378 25.4493
H 40.9943 29.9607 24.6106
C 40.3865 20.2805 44.0215
C 39.7956 21.175 42.9176
N 40.8777 21.6656 42.0749
C 41.9594 22.4548 42.7391
C 42.5798 21.5408 43.7938
N 41.5138 20.9142 44.6722
H 39.5402 20.0779 44.6988
H 40.6675 19.2754 43.7181
H 39.3169 22.005 43.455
H 39.0699 20.6524 42.3434
H 41.2766 20.8823 41.5886
H 41.4812 23.2711 43.268
H 42.6983 22.8515 41.9895
H 43.2809 22.157 44.3365
H 43.112 20.8289 43.1962
H 41.0586 21.6284 45.2185
C 27.7205 10.2506 33.2401
C 27.9363 9.15082 32.2565
N 27.2863 7.86345 32.703
C 27.8238 7.49676 34.0259
C 27.4518 8.53434 35.112
N 28.0011 9.80985 34.612
H 28.3892 11.1083 32.9615
H 26.6224 10.4455 33.1419
H 29.09 8.92407 32.1585
H 27.6896 9.45356 31.2066
H 26.3035 8.03679 32.8917
H 28.9386 7.3929 33.9848
H 27.4118 6.49772 34.3339
H 27.8811 8.2301 36.1094
H 26.3423 8.5885 35.1321
H 28.9507 10.0285 34.945
C 36.0382 50.8225 9.88373
C 35.5309 51.5462 11.1134
N 34.0681 51.8117 11.0688
C 33.6205 52.3668 9.82708
C 34.0753 51.6658 8.57265
N 35.5783 51.5242 8.59535
H 37.1355 50.8985 9.92547
H 35.6807 49.8547 9.95632
H 36.1272 52.4488 11.1071
H 35.7379 50.8561 11.9747
H 33.6424 50.8807 11.045
H 33.9071 53.4229 9.84271
H 32.5668 52.3309 9.90455
H 33.7397 52.2564 7.70149
H 33.5414 50.7332 8.54424
H 35.9544 52.5346 8.64824
C 16.4807 51.4184 10.6711
C 15.0465 52.0255 10.9624
N 14.4659 52.5832 9.73625
C 15.3796 6.46555 9.003
C 16.7268 52.8413 8.69825
N 17.3794 52.2301 9.91461
H 16.9331 51.0289 11.5352
H 16.3402 50.5308 10.084
H 15.0335 52.8057 11.7368
H 14.4965 51.1189 11.3159
H 14.1936 51.8401 9.09439
H 15.4474 7.35169 9.60374
H 14.8472 6.91592 8.13954
H 17.4011 6.55971 8.25222
H 16.6264 52.1035 7.88502
H 17.6579 52.9884 10.5433
C 46.2635 40.7696 14.2023
C 46.8916 39.8567 15.316
N 45.8545 39.0799 16.0737
C 44.7938 39.9476 16.6304
C 44.2583 40.933 15.612
N 45.2787 41.6088 14.7887
H 47.0368 41.4563 13.7868
H 45.8089 40.1494 13.3602
H 47.3777 40.4781 16.0522
H 47.5535 39.176 14.8271
H 45.3523 38.5682 15.3317
H 45.2419 40.5481 17.3857
H 44.0128 39.3635 17.0772
H 43.5314 41.6231 16.0757
H 43.6136 40.3398 14.9273
H 45.6071 42.4558 15.2135
C 30.8036 29.0671 30.7149
C 30.5739 30.5257 30.3228
N 31.0277 31.3969 31.4045
C 30.3282 31.0242 32.7287
C 30.4166 29.5327 33.0153
N 30.0585 28.6677 31.8605
H 30.4015 28.3886 29.9147
H 31.8887 28.9648 30.8687
H 29.4182 30.6232 30.1557
H 31.0513 30.737 29.3176
H 31.9754 31.3917 31.4549
H 29.3105 31.2844 32.8077
H 30.8371 31.6283 33.4686
H 29.7447 29.3784 33.8553
H 31.4304 29.3043 33.3314
H 29.0875 28.8659 31.7132
C 36.008 44.5349 47.5228
C 35.5203 45.9665 47.4797
N 36.2748 46.8256 48.3827
C 36.1224 46.3808 49.7857
C 36.6949 44.9092 49.9388
N 36.0538 44.0052 48.9604
H 35.3968 43.9475 46.9017
H 37.0297 44.3692 46.9951
H 34.4719 45.9922 47.8128
H 35.6621 46.3154 46.462
H 37.2398 46.7797 48.1075
H 35.0663 46.4225 50.0466
H 36.6044 47.0839 50.5107
H 36.4021 44.5483 50.9239
H 37.7798 44.9602 49.835
H 35.162 43.8121 49.326
C 43.4867 45.4453 42.974
C 42.1837 45.8064 43.7327
N 40.975 45.8238 42.8954
C 41.0928 46.5371 41.6462
C 42.294 46.0087 40.8862
N 43.6048 46.1404 41.6215
H 44.3977 45.7402 43.5348
H 43.5893 44.3831 42.8448
H 42.4793 46.7552 44.1635
H 42.1219 45.0796 44.564
H 40.7377 44.867 42.5459
H 41.3147 47.6609 41.8574
H 40.1829 46.3513 40.9302
H 42.3125 46.5977 39.9854
H 42.1689 44.9524 40.687
H 43.9205 47.128 41.7303
C 36.733 11.355 28.1681
C 35.9236 12.6838 28.1326
N 34.6005 12.4225 27.5668
C 34.7503 11.9326 26.1516
C 35.6059 10.6687 26.1069
N 36.8795 10.8088 26.7582
H 37.6748 11.484 28.5831
H 36.1333 10.5869 28.7985
H 36.4358 13.45 27.5389
H 35.8568 13.0446 29.1505
H 34.2333 11.7692 28.2258
H 35.2173 12.8371 25.6126
H 33.7727 11.6946 25.7432
H 35.8159 10.333 25.0984
H 35.1756 9.81188 26.656
H 37.5644 11.3328 26.1626
C 20.6227 31.7008 16.9683
C 22.0567 32.016 16.5438
N 23.0463 31.2422 17.3451
C 22.9024 31.6177 18.7765
C 21.4185 31.6732 19.263
N 20.3431 32.243 18.3057
H 19.7738 31.9254 16.2389
H 20.4605 30.6392 16.9288
H 22.2816 33.0826 16.5131
H 22.1735 31.8345 15.4496
H 22.7727 30.2354 17.2034
H 23.3453 32.6174 18.9347
H 23.4803 30.9174 19.2887
H 21.3852 32.2461 20.1797
H 21.1646 30.6557 19.6341
H 20.3972 33.2512 18.3393
C 39.9295 50.1133 52.561
C 39.7237 48.6745 53.0742
N 38.5025 48.6524 6.84347
C 38.2749 49.7515 7.85328
C 38.64 51.1762 7.31734
N 39.9356 51.0969 6.66037
H 40.8594 50.1675 52.0017
H 39.0759 50.3604 51.9389
H 40.5677 48.4049 6.66265
H 39.7737 47.9221 52.2753
H 37.7305 48.8116 53.1948
H 38.8048 49.5502 8.821
H 37.1928 49.7223 7.92341
H 38.6921 51.8731 8.13082
H 37.8227 51.3919 6.60891
H 40.6894 50.8837 7.37144
C 31.2768 43.2242 42.2867
C 29.7537 43.3607 42.2761
N 29.2952 44.8272 42.3854
C 29.8841 45.4351 43.644
C 31.4891 45.2681 43.6703
N 31.8821 43.8366 43.505
H 31.4978 42.176 42.3296
H 31.7913 43.592 41.3092
H 29.452 42.7577 43.1836
H 29.2938 43.0053 41.3789
H 29.6514 45.3303 41.5791
H 29.4527 45.0294 44.555
H 29.7127 46.5506 43.6748
H 31.8307 45.6745 44.6052
H 31.8945 45.9384 42.9315
H 31.4308 43.4144 44.3641
C 34.0392 39.8818 45.3507
C 35.3204 40.562 44.8487
N 36.5411 39.6612 44.9043
C 36.6115 38.9957 46.1609
C 35.2855 38.3872 46.6579
N 34.1813 39.2763 46.6131
H 33.2313 40.6126 45.353
H 33.7206 39.1223 44.639
H 35.4285 41.3712 45.6169
H 35.1326 41.0485 43.8505
H 36.5449 39.0132 44.1192
H 36.9696 39.6238 46.9564
H 37.3847 38.2356 46.0167
H 35.3544 38.1555 47.7288
H 35.0704 37.4618 46.2825
H 34.4407 40.055 47.1679
C 24.1959 21.6495 18.8655
C 22.9102 22.4034 19.2723
N 22.0619 22.7289 18.1343
C 22.7924 23.3622 16.9848
C 24.1646 22.5502 16.5959
N 25.0016 22.227 17.7644
H 24.8176 21.5734 19.7174
H 23.9497 20.6733 18.5154
H 23.1908 23.3443 19.7274
H 22.3103 21.8954 19.9389
H 21.7093 21.8129 17.8116
H 22.898 24.4103 17.2115
H 22.0504 23.43 16.1804
H 24.6941 23.0614 15.8056
H 23.8968 21.5563 16.0999
H 25.3588 23.0863 18.0896
C 36.4167 9.21724 43.2176
C 37.3152 9.28767 41.9883
N 38.5707 9.75983 42.4018
C 38.527 11.0557 43.0697
C 37.625 11.0129 44.3148
N 36.2868 10.5234 43.8849
H 35.403 9.03234 42.8168
H 36.6216 8.41947 43.8947
H 36.882 9.98807 41.1831
H 37.4317 8.23606 41.738
H 39.0801 9.16552 43.0939
H 38.1312 11.8435 42.381
H 39.4719 11.4102 43.448
H 37.551 12.0116 44.5694
H 38.0765 10.4665 45.1695
H 36.0181 11.184 43.1992
C 23.8057 12.9002 39.9835
C 23.7674 13.9756 41.1715
N 24.2811 13.4172 42.4978
C 23.8098 12.0576 42.7796
C 24.0698 11.0675 41.5585
N 23.2817 11.5393 40.4229
H 23.3836 13.4071 39.044
H 24.887 12.7999 39.8218
H 22.6776 14.2221 41.2834
H 24.3966 14.8454 40.9466
H 25.2733 13.605 42.5876
H 22.7483 12.1845 42.8419
H 24.172 11.692 43.7924
H 23.8417 10.0231 41.8662
H 25.1733 11.0623 41.449
H 22.3359 11.6063 40.7132
C 22.6357 32.9208 52.0279
C 21.6855 33.2992 50.8544
N 20.2432 33.0153 51.2577
C 20.0507 31.6026 51.6877
C 21.1043 31.2358 52.7389
N 22.454 31.505 52.2885
H 23.6086 33.1339 51.5969
H 22.4029 33.5298 52.8831
H 21.9667 32.6891 49.9492
H 21.7797 34.3835 50.5829
H 19.9121 33.6473 52.0151
H 20.095 30.9562 50.7341
H 19.0608 31.4823 52.1198
H 21.0484 30.1757 53.093
H 20.8453 31.7664 6.61234
H 22.6029 31.0976 51.3542
C 36.8577 21.8016 45.449
C 36.2428 22.7523 46.481
N 35.3278 22.0125 47.3424
C 34.2953 21.2552 46.584
C 34.9499 20.24 45.6072
N 35.7987 21.0212 44.7254
H 37.3031 22.4471 44.6174
H 37.5546 21.1222 45.8841
H 35.777 23.563 45.9679
H 37.14 23.172 46.9545
H 35.8232 21.361 47.9011
H 33.6875 21.9264 46.0137
H 33.7145 20.6451 47.3127
H 34.1739 19.8292 45.02
H 35.4854 19.3868 46.1821
H 35.2836 21.6929 44.1371
C 42.2347 33.9389 45.2798
C 41.1999 34.9873 45.6796
N 41.3404 36.1787 44.815
C 42.7442 36.8286 44.9658
C 43.9267 35.7896 45.0025
N 43.6064 34.4695 45.6063
H 42.0498 33.1068 45.989
H 42.2072 33.6053 44.2627
H 41.294 35.2898 46.7191
H 40.1986 34.5321 45.5819
H 41.3184 35.8211 43.8738
H 42.8023 37.4479 45.8732
H 42.9573 37.4012 44.0556
H 44.8276 36.247 45.5489
H 44.1621 35.5094 43.996
H 43.791 34.4989 46.5917
C 32.1923 22.9019 42.2364
C 33.5467 22.1722 42.6705
N 33.627 20.9049 41.9312
C 32.386 20.0933 41.9467
C 31.3021 20.8748 41.2659
N 30.9776 22.0652 42.0421
H 31.9459 23.6892 42.9214
H 32.3662 23.4494 41.2664
H 33.5329 22.018 43.7709
H 34.3291 22.7875 42.4649
H 34.0087 20.9859 41.0015
H 32.0423 19.8357 42.9189
H 32.5812 19.1313 41.4449
H 30.4765 20.1832 41.1267
H 31.6276 21.1912 40.2643
H 30.6077 21.7181 43.0079
C 24.5796 35.1904 46.8944
C 26.0361 34.9069 46.7796
N 26.4619 33.8577 47.7142
C 26.0869 34.2215 49.123
C 24.5867 34.5033 49.2405
N 24.2216 35.557 48.3202
H 24.2411 36.0546 46.3203
H 23.9701 34.2984 46.6229
H 26.588 35.8374 46.876
H 26.2472 34.5364 45.8188
H 25.9948 33.0127 47.4835
H 26.6604 35.0276 49.4839
H 26.3172 33.3392 49.7157
H 24.4071 34.7782 50.3031
H 23.9675 33.6398 49.0247
H 24.5669 36.5005 48.6426
C 23.4326 32.8424 34.1626
C 23.1621 33.1845 35.6607
N 24.0029 32.4137 36.5308
C 23.6181 30.9143 36.396
C 23.8932 30.4731 34.9187
N 23.1721 31.3378 33.9615
H 22.7296 33.465 33.5196
H 24.4836 33.016 33.9563
H 22.0979 32.8971 35.8172
H 23.3034 34.2449 35.7207
H 24.9636 32.5413 36.2661
H 22.5278 30.8358 36.6817
H 24.3194 30.4217 37.1096
H 23.6197 29.41 34.6956
H 24.955 30.5085 34.6102
H 22.1638 31.3125 34.1828
C 46.7451 27.9542 44.8906
C 46.4452 27.7727 43.4148
N 46.5997 26.4114 42.8684
C 47.9615 25.9631 43.2492
C 48.2677 26.1502 44.7856
N 48.0875 27.5721 45.2081
H 46.5576 28.9669 45.1531
H 46.0834 27.3738 45.4873
H 47.2447 28.3599 42.8821
H 45.5601 28.2585 43.0795
H 45.9007 25.794 43.2742
H 48.6777 26.6121 42.7661
H 48.0766 24.8948 42.931
H 49.3167 25.7533 44.8645
H 47.5627 25.4928 45.3174
H 48.7064 28.2219 44.7446
C 27.9948 18.6484 14.1638
C 26.7017 19.2065 13.4372
N 25.5607 19.5167 14.2762
C 25.3212 18.491 15.3409
C 26.6293 18.147 16.0896
N 27.7522 17.7222 15.2056
H 28.7017 18.1863 13.4533
H 28.5556 19.4661 14.6756
H 26.373 18.3924 12.8299
H 26.9676 19.9637 12.7637
H 25.7107 20.438 14.7429
H 24.8185 17.5922 14.9764
H 24.555 18.8551 16.0694
H 26.38 17.3202 16.6992
H 27.0075 18.9763 16.6864
H 27.6166 16.7986 14.7186
C 32.0526 11.4499 47.0133
C 31.69 10.1789 46.1569
N 32.6399 9.96041 45.0919
C 32.8394 11.1876 44.2594
C 33.2128 12.4485 45.1684
N 32.2658 12.6138 46.1942
H 31.256 11.6759 47.7659
H 32.987 11.1434 47.4987
H 30.7257 10.3063 45.7168
H 31.6325 9.30532 46.8295
H 33.5655 9.70704 45.5806
H 31.8588 11.3424 43.7218
H 33.6126 11.0218 43.4826
H 33.1484 13.3231 44.5084
H 34.2246 12.3767 45.579
H 31.4186 12.9496 45.7626
C 30.9296 22.6417 29.9314
C 31.4458 23.942 29.1816
N 31.5583 25.0509 30.0658
C 30.3142 25.3531 30.8124
C 29.8067 24.1911 31.6499
N 29.7307 22.9043 30.7679
H 30.8509 21.8387 29.1314
H 31.7897 22.3711 30.522
H 30.8561 24.1314 28.3212
H 32.4796 23.7425 28.8
H 32.2102 24.8796 30.8621
H 29.4937 25.5543 30.0367
H 30.5192 26.1968 31.5243
H 28.8431 24.5168 32.0416
H 30.3533 24.0762 32.5903
H 28.9237 22.9789 30.1603
C 21.2174 35.3845 37.8867
C 20.0503 36.3426 37.5769
N 20.2798 37.7368 38.0154
C 20.6584 37.7537 39.4501
C 21.7513 36.7149 39.8771
N 21.5926 35.3948 39.2411
H 20.9369 34.3473 37.5888
H 22.1233 35.6774 37.2711
H 19.198 36.001 38.1719
H 19.9006 36.2209 36.4964
H 21.1174 38.0728 37.4718
H 19.6867 37.5039 39.9559
H 20.8878 38.8215 39.7532
H 21.8223 36.5491 40.9453
H 22.7164 37.0677 39.6091
H 20.8836 34.8944 39.7037
C 14.8511 38.3449 10.2142
C 14.6239 37.0301 9.37132
N 14.6578 35.8058 10.2353
C 15.8763 35.8338 11.0952
C 15.8502 37.0237 12.0118
N 15.9352 38.2278 11.1933
H 15.008 39.1032 9.40434
H 13.958 38.6587 10.7166
H 15.4265 37.0379 8.51998
H 13.6202 37.1411 8.85687
H 13.8615 35.7491 10.7874
H 16.7453 35.944 10.4437
H 16.0676 34.9208 11.6797
H 16.7018 36.9262 12.6594
H 14.8749 37.1368 12.5044
H 16.8035 38.1871 10.6911
C 44.6162 27.2516 33.3219
C 43.7219 26.8766 32.1053
N 42.8074 25.8012 32.3111
C 43.4962 24.6362 32.8117
C 44.0976 24.9854 34.1215
N 45.1221 26.0342 33.9501
H 45.4658 27.98 33.0888
H 43.8887 27.7715 33.9999
H 44.3565 26.6403 31.253
H 43.2075 27.846 31.8286
H 42.0996 26.1402 33.0465
H 44.319 24.2505 32.1773
H 42.871 23.7712 33.014
H 44.5029 24.0997 34.6056
H 43.3342 25.3983 34.7268
H 45.8651 25.6577 33.3724
C 20.4079 50.624 13.0896
C 19.3965 51.3576 14.1413
N 19.2903 52.7528 13.7776
C 20.6348 53.3287 13.84
C 21.5144 52.6762 12.7935
N 21.7658 51.2534 13.008
H 20.6066 49.551 13.3954
H 19.9521 50.5419 12.1022
H 19.7283 51.2208 15.1949
H 18.3784 50.8669 14.0747
H 18.9945 52.874 12.8253
H 21.0328 53.2173 14.8614
H 20.6199 7.35586 13.513
H 22.5525 53.1441 12.8246
H 21.0498 52.807 11.7857
H 22.3263 51.1609 13.8355
C 28.8758 18.0021 39.3138
C 29.6856 16.892 40.0173
N 29.3046 15.4733 39.68
C 27.9068 15.3414 39.8175
C 27.0703 16.3879 39.0713
N 27.4118 17.7748 39.4142
H 29.1459 19.0011 39.7084
H 29.1135 18.0095 38.269
H 29.5777 16.9834 41.1208
H 30.7998 16.996 39.7649
H 29.5166 15.4696 38.7549
H 27.6935 15.3481 40.8664
H 27.574 14.3848 39.517
H 26.0009 16.2605 39.376
H 27.0496 16.2259 37.9729
H 27.3019 17.9405 40.3968
C 35.9875 6.88427 28.2347
C 34.8754 6.69003 27.138
N 35.4049 53.0566 25.9296
C 36.4861 6.75908 25.3392
C 37.6395 6.97185 26.3147
N 37.1881 7.65096 27.6063
H 35.5777 7.37429 29.1344
H 36.2691 52.8307 28.4509
H 34.4805 7.6902 26.9257
H 34.1316 53.0373 27.6159
H 35.7117 52.0813 26.1702
H 36.1071 7.74535 24.9602
H 36.8201 53.2272 24.4205
H 38.5318 7.47026 25.8686
H 38.053 52.9922 26.6276
H 36.7875 8.63322 27.3855
C 31.3627 39.1332 8.63224
C 31.6942 39.7466 7.24229
N 30.4543 40.2907 6.67008
C 29.3736 39.3307 53.5556
C 29.0091 38.5301 7.8657
N 30.3185 38.0768 8.44086
H 32.2541 38.61 9.04317
H 31.0111 39.8555 9.38796
H 32.2077 39.0346 6.57985
H 32.367 40.4804 7.46489
H 30.0395 41.0755 7.18076
H 29.6232 38.6296 52.7721
H 28.4638 39.8874 53.2493
H 28.4012 37.6702 7.55276
H 28.3959 39.1302 8.54021
H 30.7088 37.3948 7.77142
C 24.6184 16.7409 24.7795
C 23.8938 15.5726 25.354
N 24.8451 14.406 25.5664
C 25.6346 13.9983 24.3833
C 26.3335 15.2142 23.7265
N 25.2804 16.3193 23.5275
H 23.9242 17.5303 24.5241
H 25.2936 17.144 25.5799
H 23.0572 15.26 24.7963
H 23.4967 15.9645 26.2979
H 25.4704 14.5517 26.3546
H 25.1524 13.3634 23.5876
H 26.3829 13.359 24.7146
H 26.8735 14.941 22.7868
H 27.051 15.433 24.4831
H 24.5881 16.0554 22.8752
C 25.7504 40.5101 9.47495
C 25.1258 40.1613 8.10113
N 23.7146 39.8783 8.21697
C 23.4086 38.7675 9.30121
C 24.2087 38.9688 10.5865
N 25.6608 39.3488 10.3191
H 26.8232 40.8367 9.4138
H 25.2279 41.2926 9.98631
H 25.6743 39.3142 7.7593
H 25.3528 40.9948 7.36274
H 23.1875 40.7543 8.30687
H 23.7552 37.8092 8.97811
H 22.3419 38.7401 9.623
H 24.1632 38.1662 11.2696
H 23.7393 39.8266 11.0844
H 26.1312 38.5455 9.90417
C 27.7686 43.5645 52.1517
C 28.4617 43.2936 6.49935
N 27.6183 42.7552 7.55226
C 26.4969 43.6588 7.75854
C 25.695 43.9993 53.373
N 26.6666 44.5185 52.3449
H 28.48 43.9157 51.4288
H 27.3925 42.6183 51.832
H 28.9659 44.2251 6.83041
H 29.1686 42.4807 53.2307
H 27.2024 41.8219 7.3203
H 26.7663 44.6482 8.15101
H 25.7664 43.1612 8.41244
H 24.9135 44.7585 6.57788
H 25.3029 43.0732 53.0124
H 27.0371 45.4357 52.6266
C 19.0992 14.3537 11.0676
C 20.2503 14.3666 12.0727
N 20.1194 15.538 12.9881
C 20.3135 16.7203 12.2134
C 19.221 16.8151 11.0109
N 19.1518 15.5507 10.1877
H 19.1281 13.4089 10.5256
H 18.1219 14.4081 11.6413
H 21.1963 14.4323 11.5613
H 20.2142 13.4399 12.6929
H 19.1736 15.5005 13.3878
H 21.2982 16.6671 11.7681
H 20.2829 17.5856 12.8455
H 19.4757 17.6505 10.4116
H 18.2504 17.0082 11.3913
H 19.9673 15.41 9.55956
C 34.5684 30.5891 25.9147
C 35.0116 30.1009 27.3657
N 34.039 30.6673 28.3748
C 34.0242 32.0302 28.3582
C 33.5666 32.5818 26.8976
N 34.5014 32.0744 25.9118
H 35.2397 30.2736 25.133
H 33.6645 30.1026 25.6815
H 36.1369 30.3856 27.5701
H 35.0143 29.0236 27.3673
H 33.1112 30.238 28.1953
H 34.943 32.5115 28.7185
H 33.2629 32.4578 29.0333
H 33.6067 33.6594 26.9417
H 32.5127 32.3521 26.646
H 35.4832 32.4408 26.239
C 52.1545 27.7148 26.0982
C 50.9952 28.2614 26.9532
N 51.5083 29.2662 27.9426
C 52.5872 28.7962 28.777
C 6.76616 28.43 27.8291
N 53.3848 27.4099 26.8114
H 51.779 26.7647 25.6718
H 52.3155 28.4456 25.3465
H 50.5857 27.3958 27.5347
H 50.2099 28.6756 26.3495
H 51.7637 30.1135 27.3896
H 52.2995 27.8868 29.3993
H 52.9517 29.5692 29.4869
H 7.58424 28.2255 28.4343
H 7.03855 29.3074 27.1841
H 53.2538 26.504 27.2685
C 27.3461 16.2534 7.08424
C 27.8913 14.9613 53.454
N 28.7876 15.3966 52.3726
C 28.1574 16.1074 51.259
C 27.6025 17.4111 51.8782
N 26.6995 17.0943 53.0469
H 26.6425 15.9136 7.81569
H 28.174 16.7651 7.5858
H 27.0627 14.4243 53.0523
H 28.3626 14.3005 7.22894
H 29.5409 15.9256 52.8478
H 27.3131 15.5237 50.9545
H 28.9025 16.3051 50.4766
H 27.0143 17.8498 51.0548